34
Lattice="10.2106219203 0.0 0.0 5.10531096017 8.84265797145 0.0 0.0 0.0 22.0842344718" Properties=species:S:1:pos:R:3:Z:I:1:tags:I:1:forces:R:3 energy=11.6258783645 pbc="T T F"
Cu      0.00000000       1.47377633      10.00000000       29        2       0.00000000       0.00438412       0.15454545 
Cu      2.55265548       1.47377633      10.00000000       29        2       0.00024989       0.00014427       0.16027657 
Cu      5.10531096       1.47377633      10.00000000       29        2      -0.00000000       0.00000564       0.16066242 
Cu      7.65796644       1.47377633      10.00000000       29        2      -0.00024989       0.00014427       0.16027657 
Cu      1.27632774       3.68444082      10.00000000       29        2       0.00001583       0.00015883       0.16047399 
Cu      3.82898322       3.68444082      10.00000000       29        2       0.00000489      -0.00000282       0.16066242 
Cu      6.38163870       3.68444082      10.00000000       29        2      -0.00000489      -0.00000282       0.16066242 
Cu      8.93429418       3.68444082      10.00000000       29        2      -0.00001583       0.00015883       0.16047399 
Cu      2.55265548       5.89510531      10.00000000       29        2      -0.00012964      -0.00009312       0.16047399 
Cu      5.10531096       5.89510531      10.00000000       29        2       0.00000000      -0.00028854       0.16027657 
Cu      7.65796644       5.89510531      10.00000000       29        2       0.00012964      -0.00009312       0.16047399 
Cu     10.21062192       5.89510531      10.00000000       29        2       0.00000000      -0.00000000       0.16066953 
Cu      3.82898322       8.10576981      10.00000000       29        2      -0.00379676      -0.00219206       0.15454545 
Cu      6.38163870       8.10576981      10.00000000       29        2       0.00379676      -0.00219206       0.15454545 
Cu      8.93429418       8.10576981      10.00000000       29        2       0.00014547      -0.00006571       0.16047399 
Cu     11.48694966       8.10576981      10.00000000       29        2      -0.00014547      -0.00006571       0.16047399 
Cu      0.00000000       0.00000000      12.08423447       29        1      -0.00000000      -0.00000000      -0.17465228 
Cu      2.55265548       0.00000000      12.08423447       29        1      -0.00593164       0.00000127      -0.14712252 
Cu      5.10531096       0.00000000      12.08423447       29        1       0.00000000      -0.00000002      -0.16065937 
Cu      7.65796644       0.00000000      12.08423447       29        1       0.00593164       0.00000127      -0.14712252 
Cu      1.27632774       2.21066449      12.08423447       29        1      -0.00296472      -0.00513758      -0.14712252 
Cu      3.82898322       2.21066449      12.08423447       29        1      -0.00003207      -0.00001851      -0.16042394 
Cu      6.38163870       2.21066449      12.08423447       29        1       0.00003207      -0.00001851      -0.16042394 
Cu      8.93429418       2.21066449      12.08423447       29        1       0.00296472      -0.00513758      -0.14712252 
Cu      2.55265548       4.42132899      12.08423447       29        1      -0.00000001       0.00000001      -0.16065937 
Cu      5.10531096       4.42132899      12.08423447       29        1       0.00000000       0.00003703      -0.16042394 
Cu      7.65796644       4.42132899      12.08423447       29        1       0.00000001       0.00000001      -0.16065937 
Cu     10.21062192       4.42132899      12.08423447       29        1       0.00000000      -0.00003728      -0.16042442 
Cu      3.82898322       6.63199348      12.08423447       29        1       0.00296692       0.00513631      -0.14712252 
Cu      6.38163870       6.63199348      12.08423447       29        1      -0.00296692       0.00513631      -0.14712252 
Cu      8.93429418       6.63199348      12.08423447       29        1      -0.00003229       0.00001864      -0.16042442 
Cu     11.48694966       6.63199348      12.08423447       29        1       0.00003229       0.00001864      -0.16042442 
N     -0.00000000       0.00000000      14.17087722        7        0      -0.00000000       0.00000000      -0.00714803 
N      0.00000000       0.00000000      15.21541966        7        0      -0.00000000       0.00000000      -0.04090817 
