34
Lattice="10.2106219203 0.0 0.0 5.10531096017 8.84265797145 0.0 0.0 0.0 22.0842344718" Properties=species:S:1:pos:R:3:Z:I:1:tags:I:1:forces:R:3 energy=11.544868775 pbc="T T F"
Cu     -0.00000000       1.47377633      10.00000000       29        2      -0.00243372      -0.00135836       0.15669332 
Cu      2.55265548       1.47377633      10.00000000       29        2      -0.00000000      -0.00000000       0.15256368 
Cu      5.10531096       1.47377633      10.00000000       29        2       0.00243372      -0.00135836       0.15669332 
Cu      7.65796644       1.47377633      10.00000000       29        2       0.00000000      -0.00000727       0.16063366 
Cu      1.27632774       3.68444082      10.00000000       29        2      -0.00004048       0.00278684       0.15669332 
Cu      3.82898322       3.68444082      10.00000000       29        2       0.00004048       0.00278684       0.15669332 
Cu      6.38163870       3.68444082      10.00000000       29        2       0.00014979       0.00008648       0.16054180 
Cu      8.93429418       3.68444082      10.00000000       29        2      -0.00014979       0.00008648       0.16054180 
Cu      2.55265548       5.89510531      10.00000000       29        2       0.00000000       0.00012678       0.16052574 
Cu      5.10531096       5.89510531      10.00000000       29        2      -0.00000630       0.00000364       0.16063366 
Cu      7.65796644       5.89510531      10.00000000       29        2      -0.00000000      -0.00017297       0.16054180 
Cu     10.21062192       5.89510531      10.00000000       29        2       0.00000630       0.00000364       0.16063366 
Cu      3.82898322       8.10576981      10.00000000       29        2      -0.00010979      -0.00006339       0.16052574 
Cu      6.38163870       8.10576981      10.00000000       29        2      -0.00239323      -0.00142848       0.15669332 
Cu      8.93429418       8.10576981      10.00000000       29        2       0.00239323      -0.00142848       0.15669332 
Cu     11.48694966       8.10576981      10.00000000       29        2       0.00010979      -0.00006339       0.16052574 
Cu      0.00000000       0.00000000      12.08423447       29        1       0.00227138       0.00131138      -0.15236520 
Cu      2.55265548       0.00000000      12.08423447       29        1      -0.00000000      -0.03245264      -0.16023059 
Cu      5.10531096       0.00000000      12.08423447       29        1      -0.00227138       0.00131138      -0.15236520 
Cu      7.65796644       0.00000000      12.08423447       29        1      -0.00000000      -0.00003419      -0.16067270 
Cu      1.27632774       2.21066449      12.08423447       29        1      -0.02810481       0.01622632      -0.16023059 
Cu      3.82898322       2.21066449      12.08423447       29        1       0.02810481       0.01622632      -0.16023059 
Cu      6.38163870       2.21066449      12.08423447       29        1       0.00358704      -0.00020428      -0.15972064 
Cu      8.93429418       2.21066449      12.08423447       29        1      -0.00358704      -0.00020428      -0.15972064 
Cu      2.55265548       4.42132899      12.08423447       29        1      -0.00000000      -0.00262277      -0.15236520 
Cu      5.10531096       4.42132899      12.08423447       29        1       0.00161661       0.00320861      -0.15972064 
Cu      7.65796644       4.42132899      12.08423447       29        1      -0.00000000       0.00000000      -0.16067501 
Cu     10.21062192       4.42132899      12.08423447       29        1      -0.00161661       0.00320861      -0.15972064 
Cu      3.82898322       6.63199348      12.08423447       29        1      -0.00002961       0.00001710      -0.16067270 
Cu      6.38163870       6.63199348      12.08423447       29        1      -0.00197043      -0.00300433      -0.15972064 
Cu      8.93429418       6.63199348      12.08423447       29        1       0.00197043      -0.00300433      -0.15972064 
Cu     11.48694966       6.63199348      12.08423447       29        1       0.00002961       0.00001710      -0.16067270 
N      2.55265548       1.47377633      13.79401373        7        0      -0.00000000      -0.00000000       0.00176786 
N      2.55265548       1.47377633      14.86252824        7        0       0.00000000       0.00000000      -0.00079070 
