 vasp.5.3.3 18Dez12 (build Jun 18 2015 10:56:51) complex                        
  
 executed on Dell of Center for Computational Chemistry date 2016.11.16  20:54:51
 running on   12 total cores
 distrk:  each k-point on   12 cores,    1 groups
 distr:  one band on NCORES_PER_BAND=   3 cores,    4 groups


--------------------------------------------------------------------------------------------------------


 INCAR:
 POTCAR:    PAW_PBE P 17Jan2003                   
 POTCAR:   PAW_PBE Ni 06Sep2000                   
 POTCAR:    PAW_PBE P 17Jan2003                   
  local pseudopotential read in
  partial core-charges read in
  atomic valenz-charges read in
  non local Contribution for L=           0  read in
    real space projection operators read in
  non local Contribution for L=           0  read in
    real space projection operators read in
  non local Contribution for L=           1  read in
    real space projection operators read in
  non local Contribution for L=           1  read in
    real space projection operators read in
    PAW grid and wavefunctions read in
 
   number of l-projection  operators is LMAX  =           4
   number of lm-projection operators is LMMAX =           8
 
 POTCAR:   PAW_PBE Ni 06Sep2000                   
  local pseudopotential read in
  partial core-charges read in
  atomic valenz-charges read in
  non local Contribution for L=           2  read in
    real space projection operators read in
  non local Contribution for L=           2  read in
    real space projection operators read in
  non local Contribution for L=           0  read in
    real space projection operators read in
  non local Contribution for L=           0  read in
    real space projection operators read in
  non local Contribution for L=           1  read in
    real space projection operators read in
  non local Contribution for L=           1  read in
    real space projection operators read in
    PAW grid and wavefunctions read in
 
   number of l-projection  operators is LMAX  =           6
   number of lm-projection operators is LMMAX =          18
 
 Optimization of the real space projectors (new method)

 maximal supplied QI-value         = 19.84
 optimisation between [QCUT,QGAM] = [ 11.31, 22.82] = [ 35.82,145.81] Ry 
 Optimized for a Real-space Cutoff    1.20 Angstroem

   l    n(q)    QCUT    max X(q) W(low)/X(q) W(high)/X(q)  e(spline) 
   0      8    11.310     6.651    0.17E-04    0.25E-05    0.49E-08
   0      8    11.310    90.285    0.15E-03    0.18E-03    0.54E-07
   1      8    11.310     4.328    0.24E-04    0.36E-04    0.20E-07
   1      8    11.310    54.583    0.15E-03    0.19E-03    0.85E-07
 Optimization of the real space projectors (new method)

 maximal supplied QI-value         = 16.25
 optimisation between [QCUT,QGAM] = [ 11.38, 22.75] = [ 36.24,144.96] Ry 
 Optimized for a Real-space Cutoff    1.52 Angstroem

   l    n(q)    QCUT    max X(q) W(low)/X(q) W(high)/X(q)  e(spline) 
   2      9    11.376     4.811    0.20E-04    0.13E-04    0.50E-07
   2      9    11.376    15.146    0.19E-03    0.89E-04    0.22E-06
   0     10    11.376    14.357    0.19E-04    0.21E-05    0.12E-07
   0     10    11.376    43.282    0.54E-04    0.36E-04    0.24E-06
   1     10    11.376     5.514    0.11E-04    0.58E-05    0.24E-07
   1     10    11.376     7.697    0.48E-04    0.48E-04    0.11E-06
  PAW_PBE P 17Jan2003                   :
 energy of atom  1       EATOM= -176.0430
 kinetic energy error for atom=    0.0013 (will be added to EATOM!!)
 PAW_PBE Ni 06Sep2000                   :
 energy of atom  2       EATOM=-1077.9025
 kinetic energy error for atom=    0.0030 (will be added to EATOM!!)
 
 
 POSCAR: xyz P Ni                                
  positions in direct lattice
  velocities in cartesian coordinates
 exchange correlation table for  LEXCH =        8
   RHO(1)=    0.500       N(1)  =     2000
   RHO(2)=  100.500       N(2)  =     4000

 VTST: version 3.1, (03/28/14)

 CHAIN: initializing optimizer
 
 OPT: Using VASP Dynamics algorithm
 CHAIN: Read ICHAIN            0
 
 POSCAR: xyz P Ni                                
  positions in direct lattice
  velocities in cartesian coordinates
 


--------------------------------------------------------------------------------------------------------


 ion  position               nearest neighbor table
   1  0.461  0.379  0.010-  30 2.24  31 2.30  34 2.42  35 2.43   7 2.45
   2  0.461  0.879  0.010-  29 2.24  32 2.30  33 2.42  36 2.43   8 2.45
   3  0.052  0.129  0.010-  31 2.24  29 2.30  35 2.42  33 2.43   6 2.45
   4  0.052  0.629  0.010-  32 2.24  30 2.30  36 2.42  34 2.43   5 2.45
   5  0.955  0.458  0.092-  30 2.18  31 2.21  35 2.24  34 2.29  40 2.31  37 2.32   4 2.45  12 2.53

   6  0.955  0.958  0.092-  29 2.18  32 2.21  36 2.24  33 2.29  39 2.31  38 2.32   3 2.45  11 2.53

   7  0.558  0.209  0.093-  31 2.18  29 2.22  33 2.24  35 2.29  37 2.31  39 2.33   1 2.45   9 2.52

   8  0.558  0.709  0.093-  32 2.18  30 2.22  34 2.24  36 2.29  38 2.31  40 2.33   2 2.45  10 2.52

   9  0.439  0.391  0.172-  41 2.26  40 2.26  34 2.36  37 2.39  35 2.45   7 2.52  44 2.78
  10  0.439  0.891  0.172-  42 2.26  39 2.26  33 2.36  38 2.39  36 2.45   8 2.52  43 2.78
  11  0.075  0.141  0.172-  43 2.26  37 2.26  35 2.36  39 2.39  33 2.45   6 2.53  41 2.78
  12  0.075  0.641  0.172-  44 2.26  38 2.26  36 2.36  40 2.39  34 2.45   5 2.53  42 2.78
  13  0.950  0.372  0.261-  46 2.25  37 2.26  44 2.26  47 2.30  41 2.32  19 2.44  40 3.01
  14  0.950  0.872  0.261-  45 2.25  38 2.26  43 2.26  48 2.30  42 2.32  20 2.44  39 3.01
  15  0.564  0.122  0.261-  47 2.25  39 2.25  41 2.26  45 2.30  43 2.32  18 2.44  37 3.02
  16  0.564  0.622  0.261-  48 2.25  40 2.25  42 2.26  46 2.30  44 2.32  17 2.44  38 3.02
  17  0.449  0.447  0.339-  47 2.25  50 2.31  41 2.32  44 2.33  46 2.36  16 2.44  51 3.02
  18  0.449  0.947  0.339-  48 2.25  49 2.31  42 2.32  43 2.33  45 2.36  15 2.44  52 3.02
  19  0.065  0.197  0.339-  45 2.25  51 2.31  43 2.32  41 2.33  47 2.36  13 2.44  49 3.02
  20  0.065  0.697  0.339-  46 2.25  52 2.31  44 2.32  42 2.33  48 2.36  14 2.44  50 3.02
  21  0.964  0.453  0.428-  56 2.19  53 2.22  51 2.23  50 2.26  46 2.28  28 2.39
  22  0.964  0.953  0.428-  55 2.19  54 2.22  52 2.23  49 2.26  45 2.28  27 2.39
  23  0.550  0.203  0.428-  53 2.19  55 2.22  49 2.23  51 2.26  47 2.28  25 2.39
  24  0.550  0.703  0.428-  54 2.19  56 2.22  50 2.23  52 2.26  48 2.28  26 2.39
  25  0.466  0.372  0.509-  56 2.25  53 2.25  50 2.30  51 2.37  23 2.39
  26  0.466  0.872  0.509-  55 2.25  54 2.25  49 2.30  52 2.37  24 2.39
  27  0.049  0.122  0.509-  53 2.25  55 2.25  51 2.30  49 2.37  22 2.39
  28  0.049  0.622  0.509-  54 2.25  56 2.25  52 2.30  50 2.37  21 2.39
  29  0.702  0.047  0.030-   6 2.18   7 2.22   2 2.24   3 2.30  31 2.53  32 2.53  33 2.66  39 2.79

  30  0.702  0.547  0.030-   5 2.18   8 2.22   1 2.24   4 2.30  32 2.53  31 2.53  34 2.66  40 2.79

  31  0.811  0.297  0.030-   7 2.18   5 2.21   3 2.24   1 2.30  29 2.53  30 2.53  35 2.66  37 2.79

  32  0.811  0.797  0.030-   8 2.18   6 2.21   4 2.24   2 2.30  30 2.53  29 2.53  36 2.66  38 2.79

  33  0.311  0.037  0.089-   7 2.24   6 2.29  10 2.36   2 2.42   3 2.43  11 2.45  35 2.53  36 2.53
                            29 2.66  39 2.87
  34  0.311  0.537  0.089-   8 2.24   5 2.29   9 2.36   1 2.42   4 2.43  12 2.45  36 2.53  35 2.53
                            30 2.66  40 2.87
  35  0.202  0.287  0.089-   5 2.24   7 2.29  11 2.36   3 2.42   1 2.43   9 2.45  33 2.53  34 2.53
                            31 2.66  37 2.87
  36  0.202  0.787  0.089-   6 2.24   8 2.29  12 2.36   4 2.42   2 2.43  10 2.45  34 2.53  33 2.53
                            32 2.66  38 2.87
  37  0.806  0.301  0.165-  13 2.26  11 2.26   7 2.31   5 2.32   9 2.39  40 2.51  39 2.51  31 2.79
                            35 2.87  15 3.02
  38  0.806  0.801  0.165-  14 2.26  12 2.26   8 2.31   6 2.32  10 2.39  39 2.51  40 2.51  32 2.79
                            36 2.87  16 3.02
  39  0.707  0.051  0.166-  15 2.25  10 2.26   6 2.31   7 2.33  11 2.39  38 2.51  37 2.51  29 2.79
                            33 2.87  14 3.01
  40  0.707  0.551  0.166-  16 2.25   9 2.26   5 2.31   8 2.33  12 2.39  37 2.51  38 2.51  30 2.79
                            34 2.87  13 3.01
  41  0.310  0.291  0.264-   9 2.26  15 2.26  13 2.32  17 2.32  19 2.33  43 2.52  44 2.52  47 2.74
                            11 2.78
  42  0.310  0.791  0.264-  10 2.26  16 2.26  14 2.32  18 2.32  20 2.33  44 2.52  43 2.52  48 2.74
                            12 2.78
  43  0.204  0.041  0.264-  11 2.26  14 2.26  15 2.32  19 2.32  18 2.33  41 2.52  42 2.52  45 2.74
                            10 2.78
  44  0.204  0.541  0.264-  12 2.26  13 2.26  16 2.32  20 2.32  17 2.33  42 2.52  41 2.52  46 2.74
                             9 2.78
  45  0.816  0.027  0.332-  14 2.25  19 2.25  22 2.28  15 2.30  18 2.36  47 2.54  48 2.54  43 2.74

  46  0.816  0.527  0.332-  13 2.25  20 2.25  21 2.28  16 2.30  17 2.36  48 2.54  47 2.54  44 2.74

  47  0.698  0.277  0.332-  15 2.25  17 2.25  23 2.28  13 2.30  19 2.36  45 2.54  46 2.54  41 2.74

  48  0.698  0.777  0.332-  16 2.25  18 2.25  24 2.28  14 2.30  20 2.36  46 2.54  45 2.54  42 2.74

  49  0.317  0.027  0.438-  23 2.23  22 2.26  26 2.30  18 2.31  27 2.37  51 2.54  52 2.55  55 2.59
                            19 3.02
  50  0.317  0.527  0.438-  24 2.23  21 2.26  25 2.30  17 2.31  28 2.37  52 2.54  51 2.55  56 2.59
                            20 3.02
  51  0.198  0.277  0.438-  21 2.23  23 2.26  27 2.30  19 2.31  25 2.37  49 2.54  50 2.55  53 2.59
                            17 3.02
  52  0.198  0.777  0.438-  22 2.23  24 2.26  28 2.30  20 2.31  26 2.37  50 2.54  49 2.55  54 2.59
                            18 3.02
  53  0.808  0.293  0.490-  23 2.19  21 2.22  27 2.25  25 2.25  56 2.52  55 2.52  51 2.59
  54  0.808  0.793  0.490-  24 2.19  22 2.22  28 2.25  26 2.25  55 2.52  56 2.52  52 2.59
  55  0.706  0.042  0.490-  22 2.19  23 2.22  26 2.25  27 2.25  54 2.52  53 2.52  49 2.59
  56  0.706  0.542  0.490-  21 2.19  24 2.22  25 2.25  28 2.25  53 2.52  54 2.52  50 2.59
 
  LATTYP: Found a simple orthorhombic cell.
 ALAT       =     6.0500000000
 B/A-ratio  =     1.6135537190
 C/A-ratio  =     3.3890192248
  
  Lattice vectors:
  
 A1 = (   6.0500000000,   0.0000000000,   0.0000000000)
 A2 = (   0.0000000000,   9.7620000000,   0.0000000000)
 A3 = (   0.0000000000,   0.0000000000,  20.5035663100)


Analysis of symmetry for initial positions (statically):
=====================================================================
 Subroutine PRICEL returns following result:
 
  LATTYP: Found a simple orthorhombic cell.
 ALAT       =     4.8810000000
 B/A-ratio  =     1.2395001024
 C/A-ratio  =     4.2006896763
  
  Lattice vectors:
  
 A1 = (   0.0000000000,  -4.8810000000,   0.0000000000)
 A2 = (  -6.0500000000,   0.0000000000,   0.0000000000)
 A3 = (   0.0000000000,   0.0000000000, -20.5035663100)
 
   2 primitive cells build up your supercell.
 

 Routine SETGRP: Setting up the symmetry group for a 
 simple orthorhombic supercell.


 Subroutine GETGRP returns: Found  1 space group operations
 (whereof  1 operations were pure point group operations)
 out of a pool of  8 trial point group operations.


The static configuration has the point symmetry C_1 .


Analysis of symmetry for dynamics (positions and initial velocities):
=====================================================================
 Subroutine PRICEL returns following result:
 
  LATTYP: Found a simple orthorhombic cell.
 ALAT       =     4.8810000000
 B/A-ratio  =     1.2395001024
 C/A-ratio  =     4.2006896763
  
  Lattice vectors:
  
 A1 = (   0.0000000000,  -4.8810000000,   0.0000000000)
 A2 = (  -6.0500000000,   0.0000000000,   0.0000000000)
 A3 = (   0.0000000000,   0.0000000000, -20.5035663100)
 
   2 primitive cells build up your supercell.
 

 Routine SETGRP: Setting up the symmetry group for a 
 simple orthorhombic supercell.


 Subroutine GETGRP returns: Found  1 space group operations
 (whereof  1 operations were pure point group operations)
 out of a pool of  8 trial point group operations.


The dynamic configuration has the point symmetry C_1 .


Analysis of constrained symmetry for selective dynamics:
=====================================================================
 Subroutine PRICEL returns following result:
 
  LATTYP: Found a simple orthorhombic cell.
 ALAT       =     4.8810000000
 B/A-ratio  =     1.2395001024
 C/A-ratio  =     4.2006896763
  
  Lattice vectors:
  
 A1 = (   0.0000000000,  -4.8810000000,   0.0000000000)
 A2 = (  -6.0500000000,   0.0000000000,   0.0000000000)
 A3 = (   0.0000000000,   0.0000000000, -20.5035663100)
 
   2 primitive cells build up your supercell.
 

 Routine SETGRP: Setting up the symmetry group for a 
 simple orthorhombic supercell.


 Subroutine GETGRP returns: Found  1 space group operations
 (whereof  1 operations were pure point group operations)
 out of a pool of  8 trial point group operations.


The constrained configuration has the point symmetry C_1 .


 irot  :   1
 --------------------------------------------------------------------
 isymop:   1   0   0
           0   1   0
           0   0   1

 gtrans:    -0.0000000    -0.0000000    -0.0000000

 ptrans:     0.0000000     0.0000000     0.0000000
 rotmap:
 (   1->   1)  (   2->   2)  (   3->   3)  (   4->   4)  (   5->   5) 
 (   6->   6)  (   7->   7)  (   8->   8)  (   9->   9)  (  10->  10) 
 (  11->  11)  (  12->  12)  (  13->  13)  (  14->  14)  (  15->  15) 
 (  16->  16)  (  17->  17)  (  18->  18)  (  19->  19)  (  20->  20) 
 (  21->  21)  (  22->  22)  (  23->  23)  (  24->  24)  (  25->  25) 
 (  26->  26)  (  27->  27)  (  28->  28)  (  29->  29)  (  30->  30) 
 (  31->  31)  (  32->  32)  (  33->  33)  (  34->  34)  (  35->  35) 
 (  36->  36)  (  37->  37)  (  38->  38)  (  39->  39)  (  40->  40) 
 (  41->  41)  (  42->  42)  (  43->  43)  (  44->  44)  (  45->  45) 
 (  46->  46)  (  47->  47)  (  48->  48)  (  49->  49)  (  50->  50) 
 (  51->  51)  (  52->  52)  (  53->  53)  (  54->  54)  (  55->  55) 
 (  56->  56) 

 ptrans:     0.0000000     0.5000000     0.0000000
 rotmap:
 (   1->   2)  (   2->   1)  (   3->   4)  (   4->   3)  (   5->   6) 
 (   6->   5)  (   7->   8)  (   8->   7)  (   9->  10)  (  10->   9) 
 (  11->  12)  (  12->  11)  (  13->  14)  (  14->  13)  (  15->  16) 
 (  16->  15)  (  17->  18)  (  18->  17)  (  19->  20)  (  20->  19) 
 (  21->  22)  (  22->  21)  (  23->  24)  (  24->  23)  (  25->  26) 
 (  26->  25)  (  27->  28)  (  28->  27)  (  29->  30)  (  30->  29) 
 (  31->  32)  (  32->  31)  (  33->  34)  (  34->  33)  (  35->  36) 
 (  36->  35)  (  37->  38)  (  38->  37)  (  39->  40)  (  40->  39) 
 (  41->  42)  (  42->  41)  (  43->  44)  (  44->  43)  (  45->  46) 
 (  46->  45)  (  47->  48)  (  48->  47)  (  49->  50)  (  50->  49) 
 (  51->  52)  (  52->  51)  (  53->  54)  (  54->  53)  (  55->  56) 
 (  56->  55) 
 
 
 KPOINTS: mesh auto                               

Automatic generation of k-mesh.
Space group operators:
 irot       det(A)        alpha          n_x          n_y          n_z        tau_x        tau_y        tau_z
    1     1.000000     0.000000     1.000000     0.000000     0.000000    -0.000000    -0.000000    -0.000000
 
 Subroutine IBZKPT returns following result:
 ===========================================
 
 Found     20 irreducible k-points:
 
 Following reciprocal coordinates:
            Coordinates               Weight
  0.000000  0.000000  0.000000      1.000000
  0.166667  0.000000  0.000000      2.000000
  0.333333  0.000000  0.000000      2.000000
  0.500000  0.000000  0.000000      1.000000
  0.000000  0.166667  0.000000      2.000000
  0.166667  0.166667  0.000000      2.000000
  0.333333  0.166667  0.000000      2.000000
  0.500000  0.166667  0.000000      2.000000
 -0.333333  0.166667  0.000000      2.000000
 -0.166667  0.166667  0.000000      2.000000
  0.000000  0.333333  0.000000      2.000000
  0.166667  0.333333  0.000000      2.000000
  0.333333  0.333333  0.000000      2.000000
  0.500000  0.333333  0.000000      2.000000
 -0.333333  0.333333  0.000000      2.000000
 -0.166667  0.333333  0.000000      2.000000
  0.000000  0.500000  0.000000      1.000000
  0.166667  0.500000  0.000000      2.000000
  0.333333  0.500000  0.000000      2.000000
  0.500000  0.500000  0.000000      1.000000
 
 Following cartesian coordinates:
            Coordinates               Weight
  0.000000  0.000000  0.000000      1.000000
  0.027548  0.000000  0.000000      2.000000
  0.055096  0.000000  0.000000      2.000000
  0.082645  0.000000  0.000000      1.000000
  0.000000  0.017073  0.000000      2.000000
  0.027548  0.017073  0.000000      2.000000
  0.055096  0.017073  0.000000      2.000000
  0.082645  0.017073  0.000000      2.000000
 -0.055096  0.017073  0.000000      2.000000
 -0.027548  0.017073  0.000000      2.000000
  0.000000  0.034146  0.000000      2.000000
  0.027548  0.034146  0.000000      2.000000
  0.055096  0.034146  0.000000      2.000000
  0.082645  0.034146  0.000000      2.000000
 -0.055096  0.034146  0.000000      2.000000
 -0.027548  0.034146  0.000000      2.000000
  0.000000  0.051219  0.000000      1.000000
  0.027548  0.051219  0.000000      2.000000
  0.055096  0.051219  0.000000      2.000000
  0.082645  0.051219  0.000000      1.000000
 
 TETIRR: Found    108 inequivalent tetrahedra from      216


--------------------------------------------------------------------------------------------------------




 Dimension of arrays:
   k-points           NKPTS =     20   k-points in BZ     NKDIM =     20   number of bands    NBANDS=    252
   number of dos      NEDOS =    301   number of ions     NIONS =     56
   non local maximal  LDIM  =      6   non local SUM 2l+1 LMDIM =     18
   total plane-waves  NPLWV = 518400
   max r-space proj   IRMAX =   6330   max aug-charges    IRDMAX=  14075
   dimension x,y,z NGX =    48 NGY =   72 NGZ =  150
   dimension x,y,z NGXF=    96 NGYF=  144 NGZF=  300
   support grid    NGXF=    96 NGYF=  144 NGZF=  300
   ions per type =              28  28
 NGX,Y,Z   is equivalent  to a cutoff of  13.19, 12.26, 12.16 a.u.
 NGXF,Y,Z  is equivalent  to a cutoff of  26.38, 24.52, 24.32 a.u.


 I would recommend the setting:
   dimension x,y,z NGX =    44 NGY =   71 NGZ =  150
 SYSTEM =  Ni-P                                    
 POSCAR =  xyz P Ni                                

 Startparameter for this run:
   NWRITE =      1    write-flag & timer
   PREC   = accura    normal or accurate (medium, high low for compatibility)
   ISTART =      0    job   : 0-new  1-cont  2-samecut
   ICHARG =     11    charge: 1-file 2-atom 10-const
   ISPIN  =      1    spin polarized calculation?
   LNONCOLLINEAR =      F non collinear calculations
   LSORBIT =      F    spin-orbit coupling
   INIWAV =      1    electr: 0-lowe 1-rand  2-diag
   LASPH  =      F    aspherical Exc in radial PAW
   METAGGA=      F    non-selfconsistent MetaGGA calc.

 Electronic Relaxation 1
   ENCUT  =  500.0 eV  36.75 Ry    6.06 a.u.  11.03 17.80 37.38*2*pi/ulx,y,z
   ENINI  =  500.0     initial cutoff
   ENAUG  =  544.6 eV  augmentation charge cutoff
   NELM   =    300;   NELMIN=  3; NELMDL=  0     # of ELM steps 
   EDIFF  = 0.1E-03   stopping-criterion for ELM
   LREAL  =      T    real-space projection
   NLSPLINE    = F    spline interpolate recip. space projectors
   LCOMPAT=      F    compatible to vasp.4.4
   GGA_COMPAT  = T    GGA compatible to vasp.4.4-vasp.4.6
   LMAXPAW     = -100 max onsite density
   LMAXMIX     =    2 max onsite mixed and CHGCAR
   VOSKOWN=      0    Vosko Wilk Nusair interpolation
   ROPT   =   -0.00025  -0.00025
 Ionic relaxation
   EDIFFG = -.5E-01   stopping-criterion for IOM
   NSW    =      0    number of steps for IOM
   NBLOCK =      1;   KBLOCK =      1    inner block; outer block 
   IBRION =     -1    ionic relax: 0-MD 1-quasi-New 2-CG
   NFREE  =      0    steps in history (QN), initial steepest desc. (CG)
   ISIF   =      2    stress and relaxation
   IWAVPR =     10    prediction:  0-non 1-charg 2-wave 3-comb
   ISYM   =      2    0-nonsym 1-usesym 2-fastsym
   LCORR  =      T    Harris-Foulkes like correction to forces

   POTIM  = 0.2000    time-step for ionic-motion
   TEIN   =    0.0    initial temperature
   TEBEG  =    0.0;   TEEND  =   0.0 temperature during run
   SMASS  =  -3.00    Nose mass-parameter (am)
   estimated Nose-frequenzy (Omega)   =  0.10E-29 period in steps =****** mass=  -0.836E-27a.u.
   SCALEE = 1.0000    scale energy and forces
   NPACO  =    256;   APACO  = 16.0  distance and # of slots for P.C.
   PSTRESS=    0.0 pullay stress

  Mass of Ions in am
   POMASS =  30.97 58.69
  Ionic Valenz
   ZVAL   =   5.00 10.00
  Atomic Wigner-Seitz radii
   RWIGS  =  -1.00 -1.00
  virtual crystal weights 
   VCA    =   1.00  1.00
   NELECT =     420.0000    total number of electrons
   NUPDOWN=      -1.0000    fix difference up-down

 DOS related values:
   EMIN   =  10.00;   EMAX   =-10.00  energy-range for DOS
   EFERMI =   0.00
   ISMEAR =    -5;   SIGMA  =   0.10  broadening in eV -4-tet -1-fermi 0-gaus

 Electronic relaxation 2 (details)
   IALGO  =     68    algorithm
   LDIAG  =      T    sub-space diagonalisation (order eigenvalues)
   LSUBROT=      T    optimize rotation matrix (better conditioning)
   TURBO    =      0    0=normal 1=particle mesh
   IRESTART =      0    0=no restart 2=restart with 2 vectors
   NREBOOT  =      0    no. of reboots
   NMIN     =      0    reboot dimension
   EREF     =   0.00    reference energy to select bands
   IMIX   =      4    mixing-type and parameters
     AMIX     =   0.40;   BMIX     =  1.00
     AMIX_MAG =   1.60;   BMIX_MAG =  1.00
     AMIN     =   0.10
     WC   =   100.;   INIMIX=   1;  MIXPRE=   1;  MAXMIX= -45

 Intra band minimization:
   WEIMIN = 0.0000     energy-eigenvalue tresh-hold
   EBREAK =  0.99E-07  absolut break condition
   DEPER  =   0.30     relativ break condition  

   TIME   =   0.40     timestep for ELM

  volume/ion in A,a.u.               =      21.62       145.93
  Fermi-wavevector in a.u.,A,eV,Ry     =   1.150227  2.173613 18.000796  1.323021
  Thomas-Fermi vector in A             =   2.286892
 
 Write flags
   LWAVE  =      T    write WAVECAR
   LCHARG =      T    write CHGCAR
   LVTOT  =      F    write LOCPOT, total local potential
   LVHAR  =      F    write LOCPOT, Hartree potential only
   LELF   =      F    write electronic localiz. function (ELF)
   LORBIT =     10    0 simple, 1 ext, 2 COOP (PROOUT)


 Dipole corrections
   LMONO  =      F    monopole corrections only (constant potential shift)
   LDIPOL =      F    correct potential (dipole corrections)
   IDIPOL =      0    1-x, 2-y, 3-z, 4-all directions 
   EPSILON=  1.0000000 bulk dielectric constant

 Exchange correlation treatment:
   GGA     =    --    GGA type
   LEXCH   =     8    internal setting for exchange type
   VOSKOWN=      0    Vosko Wilk Nusair interpolation
   LHFCALC =     F    Hartree Fock is set to
   LHFONE  =     F    Hartree Fock one center treatment
   AEXX    =    0.0000 exact exchange contribution

 Linear response parameters
   LEPSILON=     F    determine dielectric tensor
   LRPA    =     F    only Hartree local field effects (RPA)
   LNABLA  =     F    use nabla operator in PAW spheres
   LVEL    =     F    velocity operator in full k-point grid
   LINTERFAST=   F  fast interpolation
   KINTER  =     0    interpolate to denser k-point grid
   CSHIFT  =0.1000    complex shift for real part using Kramers Kronig
   OMEGAMAX=  -1.0    maximum frequency
   DEG_THRESHOLD= 0.2000000E-02 threshold for treating states as degnerate
   RTIME   =    0.100 relaxation time in fs

 Orbital magnetization related:
   ORBITALMAG=     F  switch on orbital magnetization
   LCHIMAG   =     F  perturbation theory with respect to B field
   DQ        =  0.001000  dq finite difference perturbation B field



--------------------------------------------------------------------------------------------------------


 Static calculation
 charge density and potential remain constant during run
 non-spin polarized calculation
 RMM-DIIS sequential band-by-band and
  variant of blocked Davidson during initial phase
 perform sub-space diagonalisation
    before iterative eigenvector-optimisation
 no mixing
 using additional bands           42
 real space projection scheme for non local part
 use partial core corrections
 calculate Harris-corrections to forces 
   (improved forces if not selfconsistent)
 use gradient corrections 
 WARNING: stress and forces are not correct
  (second derivative of E(xc) not defined)
 use of overlap-Matrix (Vanderbilt PP)
 Fermi weights with tetrahedron method with Bloechl corrections


--------------------------------------------------------------------------------------------------------


  energy-cutoff  :      500.00
  volume of cell :     1210.94
      direct lattice vectors                 reciprocal lattice vectors
     6.050000000  0.000000000  0.000000000     0.165289256  0.000000000  0.000000000
     0.000000000  9.762000000  0.000000000     0.000000000  0.102438025  0.000000000
     0.000000000  0.000000000 20.503566310     0.000000000  0.000000000  0.048772003

  length of vectors
     6.050000000  9.762000000 20.503566310     0.165289256  0.102438025  0.048772003


 
 k-points in units of 2pi/SCALE and weight: mesh auto                               
   0.00000000  0.00000000  0.00000000       0.028
   0.02754821  0.00000000  0.00000000       0.056
   0.05509642  0.00000000  0.00000000       0.056
   0.08264463  0.00000000  0.00000000       0.028
   0.00000000  0.01707300  0.00000000       0.056
   0.02754821  0.01707300  0.00000000       0.056
   0.05509642  0.01707300  0.00000000       0.056
   0.08264463  0.01707300  0.00000000       0.056
  -0.05509642  0.01707300  0.00000000       0.056
  -0.02754821  0.01707300  0.00000000       0.056
   0.00000000  0.03414601  0.00000000       0.056
   0.02754821  0.03414601  0.00000000       0.056
   0.05509642  0.03414601  0.00000000       0.056
   0.08264463  0.03414601  0.00000000       0.056
  -0.05509642  0.03414601  0.00000000       0.056
  -0.02754821  0.03414601  0.00000000       0.056
   0.00000000  0.05121901  0.00000000       0.028
   0.02754821  0.05121901  0.00000000       0.056
   0.05509642  0.05121901  0.00000000       0.056
   0.08264463  0.05121901  0.00000000       0.028
 
 k-points in reciprocal lattice and weights: mesh auto                               
   0.00000000  0.00000000  0.00000000       0.028
   0.16666667  0.00000000  0.00000000       0.056
   0.33333333  0.00000000  0.00000000       0.056
   0.50000000  0.00000000  0.00000000       0.028
   0.00000000  0.16666667  0.00000000       0.056
   0.16666667  0.16666667  0.00000000       0.056
   0.33333333  0.16666667  0.00000000       0.056
   0.50000000  0.16666667  0.00000000       0.056
  -0.33333333  0.16666667  0.00000000       0.056
  -0.16666667  0.16666667  0.00000000       0.056
   0.00000000  0.33333333  0.00000000       0.056
   0.16666667  0.33333333  0.00000000       0.056
   0.33333333  0.33333333  0.00000000       0.056
   0.50000000  0.33333333  0.00000000       0.056
  -0.33333333  0.33333333  0.00000000       0.056
  -0.16666667  0.33333333  0.00000000       0.056
   0.00000000  0.50000000  0.00000000       0.028
   0.16666667  0.50000000  0.00000000       0.056
   0.33333333  0.50000000  0.00000000       0.056
   0.50000000  0.50000000  0.00000000       0.028
 
 position of ions in fractional coordinates (direct lattice) 
   0.46089744  0.37891119  0.00971112
   0.46089744  0.87891119  0.00971112
   0.05196258  0.12886212  0.00985022
   0.05196258  0.62886212  0.00985022
   0.95528261  0.45839473  0.09246282
   0.95528261  0.95839473  0.09246282
   0.55772741  0.20860862  0.09254284
   0.55772741  0.70860862  0.09254284
   0.43869023  0.39070000  0.17239167
   0.43869023  0.89070000  0.17239167
   0.07495576  0.14075394  0.17242873
   0.07495576  0.64075394  0.17242873
   0.94987668  0.37177650  0.26138889
   0.94987668  0.87177650  0.26138889
   0.56406135  0.12161138  0.26139369
   0.56406135  0.62161138  0.26139369
   0.44890716  0.44696789  0.33933081
   0.44890716  0.94696789  0.33933081
   0.06519412  0.19684287  0.33935226
   0.06519412  0.69684287  0.33935226
   0.96412844  0.45312355  0.42847586
   0.96412844  0.95312355  0.42847586
   0.55036172  0.20299763  0.42848685
   0.55036172  0.70299763  0.42848685
   0.46584268  0.37182513  0.50933874
   0.46584268  0.87182513  0.50933874
   0.04892283  0.12174177  0.50936675
   0.04892283  0.62174177  0.50936675
   0.70235050  0.04738725  0.02960950
   0.70235050  0.54738725  0.02960950
   0.81064331  0.29729418  0.02960058
   0.81064331  0.79729418  0.02960058
   0.31105962  0.03718437  0.08900719
   0.31105962  0.53718437  0.08900719
   0.20208383  0.28714487  0.08890785
   0.20208383  0.78714487  0.08890785
   0.80641795  0.30131739  0.16547999
   0.80641795  0.80131739  0.16547999
   0.70738053  0.05117871  0.16557364
   0.70738053  0.55117871  0.16557364
   0.30977919  0.29103785  0.26414434
   0.30977919  0.79103785  0.26414434
   0.20423061  0.04106869  0.26418794
   0.20423061  0.54106869  0.26418794
   0.81584684  0.02657392  0.33224061
   0.81584684  0.52657392  0.33224061
   0.69818781  0.27656989  0.33224184
   0.69818781  0.77656989  0.33224184
   0.31686241  0.02732530  0.43780487
   0.31686241  0.52732530  0.43780487
   0.19795153  0.27723080  0.43773906
   0.19795153  0.77723080  0.43773906
   0.80847744  0.29251858  0.49001820
   0.80847744  0.79251858  0.49001820
   0.70628614  0.04247596  0.48997916
   0.70628614  0.54247596  0.48997916
 
 position of ions in cartesian coordinates  (Angst):
   2.78842949  3.69893105  0.19911256
   2.78842949  8.57993105  0.19911256
   0.31437359  1.25795203  0.20196469
   0.31437359  6.13895203  0.20196469
   5.77945981  4.47484937  1.89581752
   5.77945981  9.35584937  1.89581752
   3.37425085  2.03643732  1.89745818
   3.37425085  6.91743732  1.89745818
   2.65407591  3.81401341  3.53464412
   2.65407591  8.69501341  3.53464412
   0.45348236  1.37403999  3.53540399
   0.45348236  6.25503999  3.53540399
   5.74675390  3.62928220  5.35940438
   5.74675390  8.51028220  5.35940438
   3.41257115  1.18717027  5.35950291
   3.41257115  6.06817027  5.35950291
   2.71588834  4.36330051  6.95749169
   2.71588834  9.24430051  6.95749169
   0.39442440  1.92158013  6.95793161
   0.39442440  6.80258013  6.95793161
   5.83297703  4.42339207  8.78528328
   5.83297703  9.30439207  8.78528328
   3.32968841  1.98166286  8.78550855
   3.32968841  6.86266286  8.78550855
   2.81834819  3.62975696 10.44326053
   2.81834819  8.51075696 10.44326053
   0.29598311  1.18844317 10.44383490
   0.29598311  6.06944317 10.44383490
   4.24922053  0.46259434  0.60710028
   4.24922053  5.34359434  0.60710028
   4.90439200  2.90218580  0.60691752
   4.90439200  7.78318580  0.60691752
   1.88191071  0.36299387  1.82496492
   1.88191071  5.24399387  1.82496492
   1.22260714  2.80310822  1.82292809
   1.22260714  7.68410822  1.82292809
   4.87882861  2.94146031  3.39293004
   4.87882861  7.82246031  3.39293004
   4.27965223  0.49960656  3.39485009
   4.27965223  5.38060656  3.39485009
   1.87416412  2.84111146  5.41590105
   1.87416412  7.72211146  5.41590105
   1.23559516  0.40091259  5.41679493
   1.23559516  5.28191259  5.41679493
   4.93587341  0.25941465  6.81211740
   4.93587341  5.14041465  6.81211740
   4.22403627  2.69987525  6.81214256
   4.22403627  7.58087525  6.81214256
   1.91701757  0.26674956  8.97656120
   1.91701757  5.14774956  8.97656120
   1.19760673  2.70632710  8.97521189
   1.19760673  7.58732710  8.97521189
   4.89128848  2.85556635 10.04712057
   4.89128848  7.73656635 10.04712057
   4.27303112  0.41465036 10.04632022
   4.27303112  5.29565036 10.04632022
 


--------------------------------------------------------------------------------------------------------


 k-point  1 :   0.0000 0.0000 0.0000  plane waves:   30651
 k-point  2 :   0.1667 0.0000 0.0000  plane waves:   30718
 k-point  3 :   0.3333 0.0000 0.0000  plane waves:   30766
 k-point  4 :   0.5000 0.0000 0.0000  plane waves:   30806
 k-point  5 :   0.0000 0.1667 0.0000  plane waves:   30697
 k-point  6 :   0.1667 0.1667 0.0000  plane waves:   30726
 k-point  7 :   0.3333 0.1667 0.0000  plane waves:   30775
 k-point  8 :   0.5000 0.1667 0.0000  plane waves:   30800
 k-point  9 :  -0.3333 0.1667 0.0000  plane waves:   30775
 k-point 10 :  -0.1667 0.1667 0.0000  plane waves:   30726
 k-point 11 :   0.0000 0.3333 0.0000  plane waves:   30698
 k-point 12 :   0.1667 0.3333 0.0000  plane waves:   30723
 k-point 13 :   0.3333 0.3333 0.0000  plane waves:   30753
 k-point 14 :   0.5000 0.3333 0.0000  plane waves:   30780
 k-point 15 :  -0.3333 0.3333 0.0000  plane waves:   30753
 k-point 16 :  -0.1667 0.3333 0.0000  plane waves:   30723
 k-point 17 :   0.0000 0.5000 0.0000  plane waves:   30680
 k-point 18 :   0.1667 0.5000 0.0000  plane waves:   30744
 k-point 19 :   0.3333 0.5000 0.0000  plane waves:   30752
 k-point 20 :   0.5000 0.5000 0.0000  plane waves:   30740

 maximum and minimum number of plane-waves per node :     10306    10186

 maximum number of plane-waves:     30806
 maximum index in each direction: 
   IXMAX=   11   IYMAX=   17   IZMAX=   37
   IXMIN=  -11   IYMIN=  -18   IZMIN=  -37

 NGX is ok and might be reduce to  46
 NGY is ok and might be reduce to  72
 NGZ is ok and might be reduce to 150

 real space projection operators:
  total allocation   :      29231.56 KBytes
  max/ min on nodes  :       9798.31       9703.91


 parallel 3D FFT for wavefunctions:
    minimum data exchange during FFTs selected (reduces bandwidth)
 parallel 3D FFT for charge:
    minimum data exchange during FFTs selected (reduces bandwidth)


 total amount of memory used by VASP on root node   304274. kBytes
========================================================================

   base      :      30000. kBytes
   nonlr-proj:      17942. kBytes
   fftplans  :      16772. kBytes
   grid      :      26376. kBytes
   one-center:        295. kBytes
   wavefun   :     212889. kBytes
 
 initial charge density was supplied:
 number of electron     420.0000041 magnetization 
 keeping initial charge density in first step


--------------------------------------------------------------------------------------------------------


 Maximum index for non-local projection operator         2040
 Maximum index for augmentation-charges         1109 (set IRDMAX)


--------------------------------------------------------------------------------------------------------


 First call to EWALD:  gamma=   0.166
 Maximum number of real-space cells 4x 3x 2
 Maximum number of reciprocal cells 2x 3x 5

 FEWALD executed in parallel
    FEWALD:  cpu time    0.01: real time    0.01


----------------------------------------- Iteration    1(   1)  ---------------------------------------


    POTLOK:  cpu time    0.93: real time    0.93
    SETDIJ:  cpu time    0.06: real time    0.06
     EDDAV:  cpu time  191.98: real time  191.84
 BZINTS: Fermi energy: 17.112393;420.000000 electrons
         Band energy:3045.057585;  BLOECHL correction: -0.059787
       DOS:  cpu time    0.24: real time    0.24
    --------------------------------------------
      LOOP:  cpu time  193.22: real time  193.07

 eigenvalue-minimisations  : 10080
 total energy-change (2. order) : 0.3463554E+04  (-0.1766083E+05)
 number of electron     420.0000041 magnetization 
 augmentation part      420.0000041 magnetization 

 Free energy of the ion-electron system (eV)
  ---------------------------------------------------
  alpha Z        PSCENC =      1173.81100532
  Ewald energy   TEWEN  =     58770.75556305
  -1/2 Hartree   DENC   =    -93919.30039472
  -exchange  EXHF       =         0.00000000
  -V(xc)+E(xc)   XCENC  =       971.54907075
  PAW double counting   =     27873.80333427   -29562.47726436
  entropy T*S    EENTRO =         0.00000000
  eigenvalues    EBANDS =      3045.05758528
  atomic energy  EATOM  =     35110.35509501
  ---------------------------------------------------
  free energy    TOTEN  =      3463.55399460 eV

  energy without entropy =     3463.55399460  energy(sigma->0) =     3463.55399460


--------------------------------------------------------------------------------------------------------




----------------------------------------- Iteration    1(   2)  ---------------------------------------


     EDDAV:  cpu time  191.95: real time  191.79
 BZINTS: Fermi energy:  5.450414;420.000000 electrons
         Band energy:-214.415916;  BLOECHL correction: -0.011335
       DOS:  cpu time    0.24: real time    0.24
    --------------------------------------------
      LOOP:  cpu time  192.20: real time  192.04

 eigenvalue-minimisations  : 10080
 total energy-change (2. order) :-0.3259474E+04  (-0.3113104E+04)
 number of electron     420.0000041 magnetization 
 augmentation part      420.0000041 magnetization 

 Free energy of the ion-electron system (eV)
  ---------------------------------------------------
  alpha Z        PSCENC =      1173.81100532
  Ewald energy   TEWEN  =     58770.75556305
  -1/2 Hartree   DENC   =    -93919.30039472
  -exchange  EXHF       =         0.00000000
  -V(xc)+E(xc)   XCENC  =       971.54907075
  PAW double counting   =     27873.80333427   -29562.47726436
  entropy T*S    EENTRO =         0.00000000
  eigenvalues    EBANDS =      -214.41591577
  atomic energy  EATOM  =     35110.35509501
  ---------------------------------------------------
  free energy    TOTEN  =       204.08049355 eV

  energy without entropy =      204.08049355  energy(sigma->0) =      204.08049355


--------------------------------------------------------------------------------------------------------




----------------------------------------- Iteration    1(   3)  ---------------------------------------


     EDDAV:  cpu time  206.59: real time  206.42
 BZINTS: Fermi energy:  2.613770;420.000000 electrons
         Band energy:-700.185061;  BLOECHL correction: -0.011657
       DOS:  cpu time    0.24: real time    0.24
    --------------------------------------------
      LOOP:  cpu time  206.83: real time  206.66

 eigenvalue-minimisations  : 11060
 total energy-change (2. order) :-0.4857691E+03  (-0.4602412E+03)
 number of electron     420.0000041 magnetization 
 augmentation part      420.0000041 magnetization 

 Free energy of the ion-electron system (eV)
  ---------------------------------------------------
  alpha Z        PSCENC =      1173.81100532
  Ewald energy   TEWEN  =     58770.75556305
  -1/2 Hartree   DENC   =    -93919.30039472
  -exchange  EXHF       =         0.00000000
  -V(xc)+E(xc)   XCENC  =       971.54907075
  PAW double counting   =     27873.80333427   -29562.47726436
  entropy T*S    EENTRO =         0.00000000
  eigenvalues    EBANDS =      -700.18506053
  atomic energy  EATOM  =     35110.35509501
  ---------------------------------------------------
  free energy    TOTEN  =      -281.68865122 eV

  energy without entropy =     -281.68865122  energy(sigma->0) =     -281.68865122


--------------------------------------------------------------------------------------------------------




----------------------------------------- Iteration    1(   4)  ---------------------------------------


     EDDAV:  cpu time  203.84: real time  203.67
 BZINTS: Fermi energy:  2.352638;420.000000 electrons
         Band energy:-742.329748;  BLOECHL correction: -0.012308
       DOS:  cpu time    0.23: real time    0.23
    --------------------------------------------
      LOOP:  cpu time  204.08: real time  203.91

 eigenvalue-minimisations  : 11208
 total energy-change (2. order) :-0.4214469E+02  (-0.4083760E+02)
 number of electron     420.0000041 magnetization 
 augmentation part      420.0000041 magnetization 

 Free energy of the ion-electron system (eV)
  ---------------------------------------------------
  alpha Z        PSCENC =      1173.81100532
  Ewald energy   TEWEN  =     58770.75556305
  -1/2 Hartree   DENC   =    -93919.30039472
  -exchange  EXHF       =         0.00000000
  -V(xc)+E(xc)   XCENC  =       971.54907075
  PAW double counting   =     27873.80333427   -29562.47726436
  entropy T*S    EENTRO =         0.00000000
  eigenvalues    EBANDS =      -742.32974797
  atomic energy  EATOM  =     35110.35509501
  ---------------------------------------------------
  free energy    TOTEN  =      -323.83333866 eV

  energy without entropy =     -323.83333866  energy(sigma->0) =     -323.83333866


--------------------------------------------------------------------------------------------------------




----------------------------------------- Iteration    1(   5)  ---------------------------------------


     EDDAV:  cpu time  216.26: real time  216.08
 BZINTS: Fermi energy:  2.340701;420.000000 electrons
         Band energy:-744.064533;  BLOECHL correction: -0.010817
       DOS:  cpu time    0.24: real time    0.24
    --------------------------------------------
      LOOP:  cpu time  216.51: real time  216.33

 eigenvalue-minimisations  : 11904
 total energy-change (2. order) :-0.1734785E+01  (-0.1720373E+01)
 number of electron     420.0000041 magnetization 
 augmentation part      420.0000041 magnetization 

 Free energy of the ion-electron system (eV)
  ---------------------------------------------------
  alpha Z        PSCENC =      1173.81100532
  Ewald energy   TEWEN  =     58770.75556305
  -1/2 Hartree   DENC   =    -93919.30039472
  -exchange  EXHF       =         0.00000000
  -V(xc)+E(xc)   XCENC  =       971.54907075
  PAW double counting   =     27873.80333427   -29562.47726436
  entropy T*S    EENTRO =         0.00000000
  eigenvalues    EBANDS =      -744.06453284
  atomic energy  EATOM  =     35110.35509501
  ---------------------------------------------------
  free energy    TOTEN  =      -325.56812352 eV

  energy without entropy =     -325.56812352  energy(sigma->0) =     -325.56812352


--------------------------------------------------------------------------------------------------------




----------------------------------------- Iteration    1(   6)  ---------------------------------------


    EDDIAG:  cpu time   27.29: real time   27.27
  RMM-DIIS:  cpu time  139.05: real time  138.93
    ORTHCH:  cpu time    1.55: real time    1.55
 BZINTS: Fermi energy:  2.340525;420.000000 electrons
         Band energy:-744.141000;  BLOECHL correction: -0.010799
       DOS:  cpu time    0.23: real time    0.23
    --------------------------------------------
      LOOP:  cpu time  168.13: real time  167.99

 eigenvalue-minimisations  : 10358
 total energy-change (2. order) :-0.7646750E-01  (-0.7647204E-01)
 number of electron     420.0000041 magnetization 
 augmentation part      420.0000041 magnetization 

 Free energy of the ion-electron system (eV)
  ---------------------------------------------------
  alpha Z        PSCENC =      1173.81100532
  Ewald energy   TEWEN  =     58770.75556305
  -1/2 Hartree   DENC   =    -93919.30039472
  -exchange  EXHF       =         0.00000000
  -V(xc)+E(xc)   XCENC  =       971.54907075
  PAW double counting   =     27873.80333427   -29562.47726436
  entropy T*S    EENTRO =         0.00000000
  eigenvalues    EBANDS =      -744.14100033
  atomic energy  EATOM  =     35110.35509501
  ---------------------------------------------------
  free energy    TOTEN  =      -325.64459102 eV

  energy without entropy =     -325.64459102  energy(sigma->0) =     -325.64459102


--------------------------------------------------------------------------------------------------------




----------------------------------------- Iteration    1(   7)  ---------------------------------------


    EDDIAG:  cpu time   28.98: real time   28.95
  RMM-DIIS:  cpu time  193.88: real time  193.72
    ORTHCH:  cpu time    2.04: real time    2.04
 BZINTS: Fermi energy:  2.340499;420.000000 electrons
         Band energy:-744.153004;  BLOECHL correction: -0.010791
       DOS:  cpu time    0.24: real time    0.24
    --------------------------------------------
      LOOP:  cpu time  225.15: real time  224.95

 eigenvalue-minimisations  : 15542
 total energy-change (2. order) :-0.1200402E-01  (-0.1205104E-01)
 number of electron     420.0000041 magnetization 
 augmentation part      420.0000041 magnetization 

 Free energy of the ion-electron system (eV)
  ---------------------------------------------------
  alpha Z        PSCENC =      1173.81100532
  Ewald energy   TEWEN  =     58770.75556305
  -1/2 Hartree   DENC   =    -93919.30039472
  -exchange  EXHF       =         0.00000000
  -V(xc)+E(xc)   XCENC  =       971.54907075
  PAW double counting   =     27873.80333427   -29562.47726436
  entropy T*S    EENTRO =         0.00000000
  eigenvalues    EBANDS =      -744.15300435
  atomic energy  EATOM  =     35110.35509501
  ---------------------------------------------------
  free energy    TOTEN  =      -325.65659503 eV

  energy without entropy =     -325.65659503  energy(sigma->0) =     -325.65659503


--------------------------------------------------------------------------------------------------------




----------------------------------------- Iteration    1(   8)  ---------------------------------------


    EDDIAG:  cpu time   27.23: real time   27.20
  RMM-DIIS:  cpu time  119.30: real time  119.20
    ORTHCH:  cpu time    2.11: real time    2.11
 BZINTS: Fermi energy:  2.340500;420.000000 electrons
         Band energy:-744.152750;  BLOECHL correction: -0.010791
       DOS:  cpu time    0.23: real time    0.23
    --------------------------------------------
      LOOP:  cpu time  148.88: real time  148.76

 eigenvalue-minimisations  :  8609
 total energy-change (2. order) : 0.2544348E-03  (-0.8540004E-04)
 number of electron     420.0000041 magnetization 
 augmentation part      420.0000041 magnetization 

 Free energy of the ion-electron system (eV)
  ---------------------------------------------------
  alpha Z        PSCENC =      1173.81100532
  Ewald energy   TEWEN  =     58770.75556305
  -1/2 Hartree   DENC   =    -93919.30039472
  -exchange  EXHF       =         0.00000000
  -V(xc)+E(xc)   XCENC  =       971.54907075
  PAW double counting   =     27873.80333427   -29562.47726436
  entropy T*S    EENTRO =         0.00000000
  eigenvalues    EBANDS =      -744.15274991
  atomic energy  EATOM  =     35110.35509501
  ---------------------------------------------------
  free energy    TOTEN  =      -325.65634060 eV

  energy without entropy =     -325.65634060  energy(sigma->0) =     -325.65634060


--------------------------------------------------------------------------------------------------------




----------------------------------------- Iteration    1(   9)  ---------------------------------------


    EDDIAG:  cpu time   31.74: real time   31.71
  RMM-DIIS:  cpu time   88.40: real time   88.33
    ORTHCH:  cpu time    2.08: real time    2.08
 BZINTS: Fermi energy:  2.340500;420.000000 electrons
         Band energy:-744.152759;  BLOECHL correction: -0.010791
       DOS:  cpu time    0.23: real time    0.23
    --------------------------------------------
      LOOP:  cpu time  122.47: real time  122.37

 eigenvalue-minimisations  :  7027
 total energy-change (2. order) :-0.9357347E-05  (-0.1147727E-04)
 number of electron     420.0000041 magnetization 
 augmentation part      420.0000041 magnetization 

 Free energy of the ion-electron system (eV)
  ---------------------------------------------------
  alpha Z        PSCENC =      1173.81100532
  Ewald energy   TEWEN  =     58770.75556305
  -1/2 Hartree   DENC   =    -93919.30039472
  -exchange  EXHF       =         0.00000000
  -V(xc)+E(xc)   XCENC  =       971.54907075
  PAW double counting   =     27873.80333427   -29562.47726436
  entropy T*S    EENTRO =         0.00000000
  eigenvalues    EBANDS =      -744.15275927
  atomic energy  EATOM  =     35110.35509501
  ---------------------------------------------------
  free energy    TOTEN  =      -325.65634996 eV

  energy without entropy =     -325.65634996  energy(sigma->0) =     -325.65634996


--------------------------------------------------------------------------------------------------------




 average (electrostatic) potential at core
  the test charge radii are     0.9587  0.9791
  (the norm of the test charge is              1.0000)
       1 -86.5325       2 -86.5326       3 -86.5339       4 -86.5338       5 -87.3261
       6 -87.3261       7 -87.3277       8 -87.3277       9 -87.1338      10 -87.1338
      11 -87.1337      12 -87.1337      13 -86.9851      14 -86.9851      15 -86.9847
      16 -86.9847      17 -86.9893      18 -86.9892      19 -86.9893      20 -86.9893
      21 -86.8711      22 -86.8711      23 -86.8698      24 -86.8698      25 -86.3730
      26 -86.3729      27 -86.3736      28 -86.3736      29 -45.2574      30 -45.2574
      31 -45.2596      32 -45.2596      33 -45.5996      34 -45.5996      35 -45.6012
      36 -45.6012      37 -45.3827      38 -45.3827      39 -45.3825      40 -45.3825
      41 -45.4701      42 -45.4701      43 -45.4721      44 -45.4721      45 -45.4339
      46 -45.4338      47 -45.4302      48 -45.4302      49 -45.3561      50 -45.3561
      51 -45.3558      52 -45.3558      53 -45.0967      54 -45.0967      55 -45.1061
      56 -45.1061
 
 
 
 E-fermi :   2.3405     XC(G=0):  -7.9002     alpha+bet : -8.0981


 k-point   1 :       0.0000    0.0000    0.0000
  band No.  band energies     occupation 
      1     -12.1117      2.00000
      2     -11.5775      2.00000
      3     -10.9932      2.00000
      4     -10.9909      2.00000
      5     -10.7307      2.00000
      6     -10.5095      2.00000
      7     -10.5040      2.00000
      8     -10.2041      2.00000
      9      -9.9634      2.00000
     10      -9.9594      2.00000
     11      -9.7794      2.00000
     12      -9.3215      2.00000
     13      -9.2450      2.00000
     14      -8.6877      2.00000
     15      -8.6844      2.00000
     16      -8.1123      2.00000
     17      -8.1090      2.00000
     18      -8.0418      2.00000
     19      -7.8879      2.00000
     20      -7.8655      2.00000
     21      -7.8621      2.00000
     22      -7.6265      2.00000
     23      -7.5812      2.00000
     24      -7.5780      2.00000
     25      -7.3541      2.00000
     26      -7.2634      2.00000
     27      -7.2039      2.00000
     28      -6.9455      2.00000
     29      -5.1220      2.00000
     30      -4.9265      2.00000
     31      -4.4771      2.00000
     32      -4.4727      2.00000
     33      -4.4710      2.00000
     34      -4.4021      2.00000
     35      -4.1743      2.00000
     36      -4.1723      2.00000
     37      -4.0592      2.00000
     38      -3.8440      2.00000
     39      -3.8439      2.00000
     40      -3.7973      2.00000
     41      -3.7957      2.00000
     42      -3.4811      2.00000
     43      -3.4131      2.00000
     44      -3.2127      2.00000
     45      -3.1535      2.00000
     46      -3.1521      2.00000
     47      -3.1302      2.00000
     48      -3.1291      2.00000
     49      -3.0080      2.00000
     50      -3.0076      2.00000
     51      -2.9707      2.00000
     52      -2.8862      2.00000
     53      -2.8854      2.00000
     54      -2.8177      2.00000
     55      -2.6927      2.00000
     56      -2.6206      2.00000
     57      -2.4954      2.00000
     58      -2.3189      2.00000
     59      -2.3171      2.00000
     60      -2.2977      2.00000
     61      -2.2970      2.00000
     62      -2.1496      2.00000
     63      -2.1339      2.00000
     64      -2.1302      2.00000
     65      -2.1294      2.00000
     66      -2.0242      2.00000
     67      -1.9396      2.00000
     68      -1.9372      2.00000
     69      -1.9086      2.00000
     70      -1.8811      2.00000
     71      -1.8807      2.00000
     72      -1.8342      2.00000
     73      -1.7807      2.00000
     74      -1.7683      2.00000
     75      -1.7666      2.00000
     76      -1.6944      2.00000
     77      -1.6936      2.00000
     78      -1.6668      2.00000
     79      -1.6503      2.00000
     80      -1.5441      2.00000
     81      -1.5374      2.00000
     82      -1.5367      2.00000
     83      -1.4921      2.00000
     84      -1.3583      2.00000
     85      -1.3335      2.00000
     86      -1.3309      2.00000
     87      -1.3063      2.00000
     88      -1.2566      2.00000
     89      -1.1336      2.00000
     90      -1.1108      2.00000
     91      -1.1098      2.00000
     92      -1.0986      2.00000
     93      -1.0132      2.00000
     94      -0.9950      2.00000
     95      -0.9630      2.00000
     96      -0.9605      2.00000
     97      -0.9104      2.00000
     98      -0.8929      2.00000
     99      -0.8917      2.00000
    100      -0.8619      2.00000
    101      -0.8313      2.00000
    102      -0.8004      2.00000
    103      -0.7996      2.00000
    104      -0.7470      2.00000
    105      -0.7463      2.00000
    106      -0.7314      2.00000
    107      -0.6958      2.00000
    108      -0.6852      2.00000
    109      -0.6566      2.00000
    110      -0.6084      2.00000
    111      -0.6062      2.00000
    112      -0.5585      2.00000
    113      -0.5572      2.00000
    114      -0.5558      2.00000
    115      -0.4965      2.00000
    116      -0.4460      2.00000
    117      -0.4196      2.00000
    118      -0.4194      2.00000
    119      -0.4074      2.00000
    120      -0.3909      2.00000
    121      -0.3401      2.00000
    122      -0.3395      2.00000
    123      -0.3146      2.00000
    124      -0.3021      2.00000
    125      -0.2473      2.00000
    126      -0.2462      2.00000
    127      -0.2224      2.00000
    128      -0.1581      2.00000
    129      -0.1442      2.00000
    130      -0.1437      2.00000
    131      -0.1316      2.00000
    132      -0.1226      2.00000
    133      -0.1114      2.00000
    134      -0.0603      2.00000
    135      -0.0592      2.00000
    136      -0.0386      2.00000
    137       0.0438      2.00000
    138       0.0448      2.00000
    139       0.0463      2.00000
    140       0.0533      2.00000
    141       0.0873      2.00000
    142       0.1217      2.00000
    143       0.1229      2.00000
    144       0.1544      2.00000
    145       0.1636      2.00000
    146       0.1776      2.00000
    147       0.1786      2.00000
    148       0.2171      2.00000
    149       0.2454      2.00000
    150       0.2945      2.00000
    151       0.3214      2.00000
    152       0.3313      2.00000
    153       0.3329      2.00000
    154       0.3602      2.00000
    155       0.3784      2.00000
    156       0.3802      2.00000
    157       0.4468      2.00000
    158       0.4673      2.00000
    159       0.4860      2.00000
    160       0.4868      2.00000
    161       0.5396      2.00000
    162       0.5404      2.00000
    163       0.5516      2.00000
    164       0.5678      2.00000
    165       0.6037      2.00000
    166       0.6048      2.00000
    167       0.6342      2.00000
    168       0.6593      2.00000
    169       0.6603      2.00000
    170       0.6604      2.00000
    171       0.7139      2.00000
    172       0.7330      2.00000
    173       0.7331      2.00000
    174       0.7425      2.00000
    175       0.7683      2.00000
    176       0.7691      2.00000
    177       0.8567      2.00000
    178       0.8837      2.00000
    179       0.8870      2.00000
    180       0.8907      2.00000
    181       0.8921      2.00000
    182       0.9504      2.00000
    183       1.0264      2.00000
    184       1.0383      2.00000
    185       1.0400      2.00000
    186       1.0607      2.00000
    187       1.1268      2.00000
    188       1.1511      2.00000
    189       1.1936      2.00000
    190       1.1939      2.00000
    191       1.2812      2.00000
    192       1.3533      2.00000
    193       1.3602      2.00000
    194       1.3609      2.00000
    195       1.4251      2.00000
    196       1.4325      2.00000
    197       1.5296      2.00000
    198       1.5737      2.00000
    199       1.6555      2.00000
    200       1.6738      2.00000
    201       1.6753      2.00000
    202       1.7475      2.00000
    203       1.8654      2.00000
    204       1.8766      2.00000
    205       1.8770      2.00000
    206       1.9342      2.00000
    207       2.1291      2.00000
    208       2.1305      2.00000
    209       2.2020      2.00000
    210       2.3948     -0.24351
    211       2.5536      0.00000
    212       2.6109      0.00000
    213       2.6114      0.00000
    214       2.7311      0.00000
    215       2.8381      0.00000
    216       2.9507      0.00000
    217       3.0440      0.00000
    218       3.0469      0.00000
    219       3.1104      0.00000
    220       3.1988      0.00000
    221       3.2002      0.00000
    222       3.2592      0.00000
    223       3.4734      0.00000
    224       3.4762      0.00000
    225       3.5577      0.00000
    226       3.5592      0.00000
    227       3.6176      0.00000
    228       3.8363      0.00000
    229       4.0176      0.00000
    230       4.1393      0.00000
    231       4.1780      0.00000
    232       4.1797      0.00000
    233       4.3140      0.00000
    234       4.4499      0.00000
    235       4.4524      0.00000
    236       4.6689      0.00000
    237       4.6710      0.00000
    238       4.6831      0.00000
    239       4.7806      0.00000
    240       4.9919      0.00000
    241       5.0642      0.00000
    242       5.1283      0.00000
    243       5.1327      0.00000
    244       5.2540      0.00000
    245       5.4882      0.00000
    246       5.4960      0.00000
    247       5.5871      0.00000
    248       5.8001      0.00000
    249       5.8618      0.00000
    250       6.0189      0.00000
    251       6.1381      0.00000
    252       6.4156      0.00000

 k-point   2 :       0.1667    0.0000    0.0000
  band No.  band energies     occupation 
      1     -12.0226      2.00000
      2     -11.4925      2.00000
      3     -10.9465      2.00000
      4     -10.9442      2.00000
      5     -10.6577      2.00000
      6     -10.4654      2.00000
      7     -10.4596      2.00000
      8     -10.4020      2.00000
      9      -9.9704      2.00000
     10      -9.9682      2.00000
     11      -9.9643      2.00000
     12      -9.4436      2.00000
     13      -9.1722      2.00000
     14      -8.7147      2.00000
     15      -8.7111      2.00000
     16      -8.2105      2.00000
     17      -8.2070      2.00000
     18      -8.1452      2.00000
     19      -7.9246      2.00000
     20      -7.9209      2.00000
     21      -7.8314      2.00000
     22      -7.6437      2.00000
     23      -7.6400      2.00000
     24      -7.5512      2.00000
     25      -7.3726      2.00000
     26      -7.2768      2.00000
     27      -7.1591      2.00000
     28      -6.9657      2.00000
     29      -5.0584      2.00000
     30      -4.7913      2.00000
     31      -4.4143      2.00000
     32      -4.3804      2.00000
     33      -4.3792      2.00000
     34      -4.3084      2.00000
     35      -4.2798      2.00000
     36      -4.2792      2.00000
     37      -3.9557      2.00000
     38      -3.9547      2.00000
     39      -3.8919      2.00000
     40      -3.6798      2.00000
     41      -3.6781      2.00000
     42      -3.5639      2.00000
     43      -3.4164      2.00000
     44      -3.3400      2.00000
     45      -3.1858      2.00000
     46      -3.1849      2.00000
     47      -3.1619      2.00000
     48      -3.0092      2.00000
     49      -2.9349      2.00000
     50      -2.9329      2.00000
     51      -2.9041      2.00000
     52      -2.8829      2.00000
     53      -2.7654      2.00000
     54      -2.7213      2.00000
     55      -2.7194      2.00000
     56      -2.6118      2.00000
     57      -2.5804      2.00000
     58      -2.4680      2.00000
     59      -2.3569      2.00000
     60      -2.3554      2.00000
     61      -2.2158      2.00000
     62      -2.1538      2.00000
     63      -2.1325      2.00000
     64      -2.1307      2.00000
     65      -2.1105      2.00000
     66      -1.9724      2.00000
     67      -1.9716      2.00000
     68      -1.9698      2.00000
     69      -1.9110      2.00000
     70      -1.8885      2.00000
     71      -1.8853      2.00000
     72      -1.8353      2.00000
     73      -1.8043      2.00000
     74      -1.7552      2.00000
     75      -1.7540      2.00000
     76      -1.6649      2.00000
     77      -1.6636      2.00000
     78      -1.6476      2.00000
     79      -1.6196      2.00000
     80      -1.5838      2.00000
     81      -1.4808      2.00000
     82      -1.4796      2.00000
     83      -1.4093      2.00000
     84      -1.3636      2.00000
     85      -1.2804      2.00000
     86      -1.2785      2.00000
     87      -1.2764      2.00000
     88      -1.1776      2.00000
     89      -1.1282      2.00000
     90      -1.0724      2.00000
     91      -1.0714      2.00000
     92      -1.0579      2.00000
     93      -1.0245      2.00000
     94      -1.0156      2.00000
     95      -0.9796      2.00000
     96      -0.9780      2.00000
     97      -0.8960      2.00000
     98      -0.8954      2.00000
     99      -0.8899      2.00000
    100      -0.8758      2.00000
    101      -0.8228      2.00000
    102      -0.7692      2.00000
    103      -0.7679      2.00000
    104      -0.7542      2.00000
    105      -0.7089      2.00000
    106      -0.7069      2.00000
    107      -0.6656      2.00000
    108      -0.6332      2.00000
    109      -0.6175      2.00000
    110      -0.6148      2.00000
    111      -0.6115      2.00000
    112      -0.5677      2.00000
    113      -0.5332      2.00000
    114      -0.5266      2.00000
    115      -0.5249      2.00000
    116      -0.4523      2.00000
    117      -0.4307      2.00000
    118      -0.4215      2.00000
    119      -0.4213      2.00000
    120      -0.3708      2.00000
    121      -0.3302      2.00000
    122      -0.3140      2.00000
    123      -0.3098      2.00000
    124      -0.3096      2.00000
    125      -0.2896      2.00000
    126      -0.2048      2.00000
    127      -0.2038      2.00000
    128      -0.2023      2.00000
    129      -0.1836      2.00000
    130      -0.1234      2.00000
    131      -0.1216      2.00000
    132      -0.1131      2.00000
    133      -0.0840      2.00000
    134      -0.0466      2.00000
    135      -0.0451      2.00000
    136      -0.0231      2.00000
    137       0.0042      2.00000
    138       0.0666      2.00000
    139       0.0678      2.00000
    140       0.0867      2.00000
    141       0.1077      2.00000
    142       0.1390      2.00000
    143       0.1407      2.00000
    144       0.1577      2.00000
    145       0.1805      2.00000
    146       0.1870      2.00000
    147       0.1878      2.00000
    148       0.2195      2.00000
    149       0.2428      2.00000
    150       0.2981      2.00000
    151       0.3286      2.00000
    152       0.3360      2.00000
    153       0.3374      2.00000
    154       0.3879      2.00000
    155       0.4047      2.00000
    156       0.4060      2.00000
    157       0.4650      2.00000
    158       0.4704      2.00000
    159       0.4819      2.00000
    160       0.4821      2.00000
    161       0.5222      2.00000
    162       0.5433      2.00000
    163       0.5442      2.00000
    164       0.5842      2.00000
    165       0.6055      2.00000
    166       0.6083      2.00000
    167       0.6089      2.00000
    168       0.6446      2.00000
    169       0.6527      2.00000
    170       0.6730      2.00000
    171       0.6733      2.00000
    172       0.7334      2.00000
    173       0.7344      2.00000
    174       0.7351      2.00000
    175       0.7624      2.00000
    176       0.7666      2.00000
    177       0.7677      2.00000
    178       0.8498      2.00000
    179       0.8754      2.00000
    180       0.9077      2.00000
    181       0.9094      2.00000
    182       0.9596      2.00000
    183       1.0206      2.00000
    184       1.0522      2.00000
    185       1.0583      2.00000
    186       1.0600      2.00000
    187       1.0886      2.00000
    188       1.1646      2.00000
    189       1.1659      2.00000
    190       1.1979      2.00000
    191       1.2510      2.00000
    192       1.3037      2.00000
    193       1.4240      2.00000
    194       1.4259      2.00000
    195       1.4328      2.00000
    196       1.4454      2.00000
    197       1.4954      2.00000
    198       1.6129      2.00000
    199       1.6149      2.00000
    200       1.6158      2.00000
    201       1.6367      2.00000
    202       1.7002      2.00000
    203       1.8771      2.00000
    204       1.8786      2.00000
    205       1.8936      2.00000
    206       2.0369      2.00000
    207       2.0921      2.00000
    208       2.0930      2.00000
    209       2.1793      2.00000
    210       2.3401      1.33100
    211       2.5211      0.00000
    212       2.7587      0.00000
    213       2.7598      0.00000
    214       2.7972      0.00000
    215       2.8727      0.00000
    216       3.0530      0.00000
    217       3.0780      0.00000
    218       3.0806      0.00000
    219       3.1296      0.00000
    220       3.1957      0.00000
    221       3.1968      0.00000
    222       3.2244      0.00000
    223       3.3432      0.00000
    224       3.4510      0.00000
    225       3.5730      0.00000
    226       3.5749      0.00000
    227       3.6373      0.00000
    228       3.7849      0.00000
    229       3.9470      0.00000
    230       4.0151      0.00000
    231       4.0169      0.00000
    232       4.1708      0.00000
    233       4.2055      0.00000
    234       4.2068      0.00000
    235       4.5542      0.00000
    236       4.5901      0.00000
    237       4.5927      0.00000
    238       4.6671      0.00000
    239       4.7435      0.00000
    240       4.9523      0.00000
    241       5.0659      0.00000
    242       5.0699      0.00000
    243       5.1806      0.00000
    244       5.3643      0.00000
    245       5.3670      0.00000
    246       5.4387      0.00000
    247       5.6555      0.00000
    248       5.6864      0.00000
    249       5.6970      0.00000
    250       5.9245      0.00000
    251       5.9879      0.00000
    252       6.2632      0.00000

 k-point   3 :       0.3333    0.0000    0.0000
  band No.  band energies     occupation 
      1     -11.7628      2.00000
      2     -11.2468      2.00000
      3     -10.8616      2.00000
      4     -10.8395      2.00000
      5     -10.8370      2.00000
      6     -10.4377      2.00000
      7     -10.3952      2.00000
      8     -10.3562      2.00000
      9     -10.3498      2.00000
     10     -10.0072      2.00000
     11     -10.0040      2.00000
     12      -9.7452      2.00000
     13      -8.9825      2.00000
     14      -8.7929      2.00000
     15      -8.7889      2.00000
     16      -8.3874      2.00000
     17      -8.3793      2.00000
     18      -8.3753      2.00000
     19      -8.0309      2.00000
     20      -8.0266      2.00000
     21      -7.7602      2.00000
     22      -7.7560      2.00000
     23      -7.7160      2.00000
     24      -7.4710      2.00000
     25      -7.4222      2.00000
     26      -7.2779      2.00000
     27      -7.0866      2.00000
     28      -7.0045      2.00000
     29      -4.8338      2.00000
     30      -4.5352      2.00000
     31      -4.5337      2.00000
     32      -4.4495      2.00000
     33      -4.3144      2.00000
     34      -4.3140      2.00000
     35      -4.2684      2.00000
     36      -4.1190      2.00000
     37      -3.8390      2.00000
     38      -3.8064      2.00000
     39      -3.8050      2.00000
     40      -3.7515      2.00000
     41      -3.6136      2.00000
     42      -3.5932      2.00000
     43      -3.5913      2.00000
     44      -3.4534      2.00000
     45      -3.2465      2.00000
     46      -3.2196      2.00000
     47      -3.2193      2.00000
     48      -3.1099      2.00000
     49      -2.9121      2.00000
     50      -2.8307      2.00000
     51      -2.8294      2.00000
     52      -2.8287      2.00000
     53      -2.6385      2.00000
     54      -2.5905      2.00000
     55      -2.5453      2.00000
     56      -2.5434      2.00000
     57      -2.5198      2.00000
     58      -2.3736      2.00000
     59      -2.3719      2.00000
     60      -2.3312      2.00000
     61      -2.2204      2.00000
     62      -2.2185      2.00000
     63      -2.2166      2.00000
     64      -2.0962      2.00000
     65      -2.0265      2.00000
     66      -1.9728      2.00000
     67      -1.9725      2.00000
     68      -1.9110      2.00000
     69      -1.8397      2.00000
     70      -1.8186      2.00000
     71      -1.8074      2.00000
     72      -1.8050      2.00000
     73      -1.7372      2.00000
     74      -1.7312      2.00000
     75      -1.7305      2.00000
     76      -1.6175      2.00000
     77      -1.5953      2.00000
     78      -1.5809      2.00000
     79      -1.5797      2.00000
     80      -1.5541      2.00000
     81      -1.4379      2.00000
     82      -1.4359      2.00000
     83      -1.4340      2.00000
     84      -1.4325      2.00000
     85      -1.3145      2.00000
     86      -1.2440      2.00000
     87      -1.2005      2.00000
     88      -1.1997      2.00000
     89      -1.1785      2.00000
     90      -1.1701      2.00000
     91      -1.0755      2.00000
     92      -1.0741      2.00000
     93      -0.9928      2.00000
     94      -0.9495      2.00000
     95      -0.9489      2.00000
     96      -0.9476      2.00000
     97      -0.9130      2.00000
     98      -0.8667      2.00000
     99      -0.8653      2.00000
    100      -0.8397      2.00000
    101      -0.8320      2.00000
    102      -0.7752      2.00000
    103      -0.7237      2.00000
    104      -0.7175      2.00000
    105      -0.7169      2.00000
    106      -0.6634      2.00000
    107      -0.6602      2.00000
    108      -0.6480      2.00000
    109      -0.6228      2.00000
    110      -0.6197      2.00000
    111      -0.6169      2.00000
    112      -0.5841      2.00000
    113      -0.5606      2.00000
    114      -0.5082      2.00000
    115      -0.4703      2.00000
    116      -0.4695      2.00000
    117      -0.4248      2.00000
    118      -0.3920      2.00000
    119      -0.3473      2.00000
    120      -0.3463      2.00000
    121      -0.3458      2.00000
    122      -0.2949      2.00000
    123      -0.2777      2.00000
    124      -0.2768      2.00000
    125      -0.2550      2.00000
    126      -0.1608      2.00000
    127      -0.1361      2.00000
    128      -0.1209      2.00000
    129      -0.1193      2.00000
    130      -0.1016      2.00000
    131      -0.1000      2.00000
    132      -0.0775      2.00000
    133      -0.0576      2.00000
    134      -0.0294      2.00000
    135      -0.0071      2.00000
    136       0.0063      2.00000
    137       0.0072      2.00000
    138       0.0781      2.00000
    139       0.1010      2.00000
    140       0.1022      2.00000
    141       0.1133      2.00000
    142       0.1308      2.00000
    143       0.1430      2.00000
    144       0.1632      2.00000
    145       0.1643      2.00000
    146       0.2233      2.00000
    147       0.2233      2.00000
    148       0.2240      2.00000
    149       0.2339      2.00000
    150       0.2818      2.00000
    151       0.3478      2.00000
    152       0.3494      2.00000
    153       0.3504      2.00000
    154       0.3525      2.00000
    155       0.3970      2.00000
    156       0.4311      2.00000
    157       0.4322      2.00000
    158       0.4749      2.00000
    159       0.4756      2.00000
    160       0.4930      2.00000
    161       0.5201      2.00000
    162       0.5521      2.00000
    163       0.5560      2.00000
    164       0.5572      2.00000
    165       0.5817      2.00000
    166       0.6175      2.00000
    167       0.6182      2.00000
    168       0.6333      2.00000
    169       0.6533      2.00000
    170       0.6875      2.00000
    171       0.6965      2.00000
    172       0.6971      2.00000
    173       0.7566      2.00000
    174       0.7801      2.00000
    175       0.7810      2.00000
    176       0.8406      2.00000
    177       0.8413      2.00000
    178       0.8635      2.00000
    179       0.9080      2.00000
    180       0.9415      2.00000
    181       0.9435      2.00000
    182       0.9871      2.00000
    183       0.9985      2.00000
    184       1.0236      2.00000
    185       1.0760      2.00000
    186       1.0769      2.00000
    187       1.0836      2.00000
    188       1.1137      2.00000
    189       1.1675      2.00000
    190       1.1883      2.00000
    191       1.1902      2.00000
    192       1.2983      2.00000
    193       1.3344      2.00000
    194       1.3629      2.00000
    195       1.3653      2.00000
    196       1.4962      2.00000
    197       1.5496      2.00000
    198       1.6052      2.00000
    199       1.6637      2.00000
    200       1.6644      2.00000
    201       1.6658      2.00000
    202       1.6824      2.00000
    203       1.8402      2.00000
    204       1.8421      2.00000
    205       1.8582      2.00000
    206       2.0963      2.00000
    207       2.1505      2.00000
    208       2.1516      2.00000
    209       2.1956      2.00000
    210       2.2611      2.00000
    211       2.4022     -0.11622
    212       2.6239      0.00000
    213       2.6882      0.00000
    214       2.8162      0.00000
    215       2.8233      0.00000
    216       2.8251      0.00000
    217       2.8713      0.00000
    218       3.1020      0.00000
    219       3.1044      0.00000
    220       3.1430      0.00000
    221       3.2152      0.00000
    222       3.2168      0.00000
    223       3.4218      0.00000
    224       3.4239      0.00000
    225       3.4332      0.00000
    226       3.6336      0.00000
    227       3.6637      0.00000
    228       3.6649      0.00000
    229       3.8268      0.00000
    230       3.9773      0.00000
    231       4.0741      0.00000
    232       4.0763      0.00000
    233       4.1948      0.00000
    234       4.3833      0.00000
    235       4.4051      0.00000
    236       4.4074      0.00000
    237       4.5642      0.00000
    238       4.7961      0.00000
    239       4.8510      0.00000
    240       4.8555      0.00000
    241       4.9513      0.00000
    242       5.0126      0.00000
    243       5.0171      0.00000
    244       5.0685      0.00000
    245       5.2866      0.00000
    246       5.5145      0.00000
    247       5.5296      0.00000
    248       5.6076      0.00000
    249       5.7046      0.00000
    250       5.7632      0.00000
    251       5.8180      0.00000
    252       6.5178      0.00000

 k-point   4 :       0.5000    0.0000    0.0000
  band No.  band energies     occupation 
      1     -11.3793      2.00000
      2     -11.3374      2.00000
      3     -10.8787      2.00000
      4     -10.8370      2.00000
      5     -10.7763      2.00000
      6     -10.7739      2.00000
      7     -10.2745      2.00000
      8     -10.2671      2.00000
      9     -10.1513      2.00000
     10     -10.0729      2.00000
     11     -10.0615      2.00000
     12     -10.0594      2.00000
     13      -8.8442      2.00000
     14      -8.8401      2.00000
     15      -8.7691      2.00000
     16      -8.6263      2.00000
     17      -8.4508      2.00000
     18      -8.4464      2.00000
     19      -8.0781      2.00000
     20      -8.0737      2.00000
     21      -7.8152      2.00000
     22      -7.8108      2.00000
     23      -7.6123      2.00000
     24      -7.5331      2.00000
     25      -7.4196      2.00000
     26      -7.2655      2.00000
     27      -7.0410      2.00000
     28      -7.0381      2.00000
     29      -4.6092      2.00000
     30      -4.6078      2.00000
     31      -4.4587      2.00000
     32      -4.3766      2.00000
     33      -4.3762      2.00000
     34      -4.3692      2.00000
     35      -4.2344      2.00000
     36      -4.0658      2.00000
     37      -3.9599      2.00000
     38      -3.8475      2.00000
     39      -3.7187      2.00000
     40      -3.6703      2.00000
     41      -3.6526      2.00000
     42      -3.6514      2.00000
     43      -3.6121      2.00000
     44      -3.6107      2.00000
     45      -3.3110      2.00000
     46      -3.1386      2.00000
     47      -3.0566      2.00000
     48      -3.0553      2.00000
     49      -2.9269      2.00000
     50      -2.9244      2.00000
     51      -2.8292      2.00000
     52      -2.7863      2.00000
     53      -2.6117      2.00000
     54      -2.6090      2.00000
     55      -2.5543      2.00000
     56      -2.3677      2.00000
     57      -2.3666      2.00000
     58      -2.3530      2.00000
     59      -2.3182      2.00000
     60      -2.1630      2.00000
     61      -2.1565      2.00000
     62      -2.1256      2.00000
     63      -2.0888      2.00000
     64      -2.0875      2.00000
     65      -2.0125      2.00000
     66      -2.0089      2.00000
     67      -2.0086      2.00000
     68      -1.9721      2.00000
     69      -1.8029      2.00000
     70      -1.7870      2.00000
     71      -1.7858      2.00000
     72      -1.7759      2.00000
     73      -1.7614      2.00000
     74      -1.7023      2.00000
     75      -1.7004      2.00000
     76      -1.6755      2.00000
     77      -1.5809      2.00000
     78      -1.5433      2.00000
     79      -1.5428      2.00000
     80      -1.5427      2.00000
     81      -1.5088      2.00000
     82      -1.4357      2.00000
     83      -1.4317      2.00000
     84      -1.4292      2.00000
     85      -1.3840      2.00000
     86      -1.3258      2.00000
     87      -1.2178      2.00000
     88      -1.1622      2.00000
     89      -1.1611      2.00000
     90      -1.1489      2.00000
     91      -1.1132      2.00000
     92      -1.0896      2.00000
     93      -1.0887      2.00000
     94      -0.9701      2.00000
     95      -0.9544      2.00000
     96      -0.9246      2.00000
     97      -0.9225      2.00000
     98      -0.8448      2.00000
     99      -0.8429      2.00000
    100      -0.7985      2.00000
    101      -0.7755      2.00000
    102      -0.7635      2.00000
    103      -0.7299      2.00000
    104      -0.7281      2.00000
    105      -0.7084      2.00000
    106      -0.7069      2.00000
    107      -0.6638      2.00000
    108      -0.6468      2.00000
    109      -0.6464      2.00000
    110      -0.6432      2.00000
    111      -0.5784      2.00000
    112      -0.5766      2.00000
    113      -0.5727      2.00000
    114      -0.5559      2.00000
    115      -0.4693      2.00000
    116      -0.4363      2.00000
    117      -0.4352      2.00000
    118      -0.3698      2.00000
    119      -0.3412      2.00000
    120      -0.3232      2.00000
    121      -0.3225      2.00000
    122      -0.3105      2.00000
    123      -0.2361      2.00000
    124      -0.2360      2.00000
[...]
  Alpha Z  1173.81101  1173.81101  1173.81101
  Ewald   78229.59156 79601.45025-99060.42087    -0.91445    -5.61888    -0.39194
  Hartree 87443.85689 88753.76034-82399.16328    -0.60177    -0.58988    -0.08934
  E(xc)   -2024.31565 -2023.22197 -2029.68124    -0.00080     0.13523     0.00357
  Local  ************************176831.25562     1.50959     8.12549     0.41983
  n-local   623.79417   602.09193   590.28731     0.00225    -1.25479    -0.05725
  augment  1135.10735  1142.61068  1191.82943     0.00302    -0.37475     0.00944
  Kinetic  3594.35472  3596.17302  3696.33562    -0.00090     0.68728    -0.08088
  Fock        0.00000     0.00000     0.00000     0.00000     0.00000     0.00000
  -------------------------------------------------------------------------------------
  Total      -6.28763     0.01919    -5.74641    -0.00305     1.10971    -0.18657
  in kB      -8.31905     0.02539    -7.60298    -0.00403     1.46824    -0.24684
  external pressure =       -5.30 kB  Pullay stress =        0.00 kB


 VOLUME and BASIS-vectors are now :
 -----------------------------------------------------------------------------
  energy-cutoff  :      500.00
  volume of cell :     1210.94
      direct lattice vectors                 reciprocal lattice vectors
     6.050000000  0.000000000  0.000000000     0.165289256  0.000000000  0.000000000
     0.000000000  9.762000000  0.000000000     0.000000000  0.102438025  0.000000000
     0.000000000  0.000000000 20.503566310     0.000000000  0.000000000  0.048772003

  length of vectors
     6.050000000  9.762000000 20.503566310     0.165289256  0.102438025  0.048772003


 FORCES acting on ions
    electron-ion (+dipol)            ewald-force                    non-local-force                 convergence-correction
 -----------------------------------------------------------------------------------------------
    0.879E+02  0.282E+02  0.122E+04   -0.887E+02 -0.276E+02 -0.122E+04    0.105E+01 -0.610E+00  0.652E+01   -0.296E+00  0.188E-01  0.135E+01
    0.879E+02  0.282E+02  0.122E+04   -0.887E+02 -0.276E+02 -0.122E+04    0.105E+01 -0.610E+00  0.652E+01   -0.296E+00  0.186E-01  0.135E+01
   -0.881E+02  0.285E+02  0.121E+04    0.889E+02 -0.279E+02 -0.122E+04   -0.102E+01 -0.614E+00  0.651E+01    0.297E+00  0.296E-01  0.135E+01
   -0.881E+02  0.285E+02  0.121E+04    0.889E+02 -0.279E+02 -0.122E+04   -0.102E+01 -0.614E+00  0.651E+01    0.297E+00  0.294E-01  0.135E+01
   -0.586E+02 -0.358E+02  0.758E+03    0.568E+02  0.342E+02 -0.760E+03    0.131E+01  0.186E+01  0.685E+00    0.424E+00 -0.154E+00  0.117E+01
   -0.586E+02 -0.358E+02  0.758E+03    0.568E+02  0.342E+02 -0.760E+03    0.131E+01  0.186E+01  0.685E+00    0.424E+00 -0.154E+00  0.117E+01
    0.584E+02 -0.353E+02  0.757E+03   -0.566E+02  0.337E+02 -0.759E+03   -0.127E+01  0.183E+01  0.675E+00   -0.423E+00 -0.145E+00  0.117E+01
    0.584E+02 -0.353E+02  0.757E+03   -0.566E+02  0.337E+02 -0.759E+03   -0.127E+01  0.183E+01  0.675E+00   -0.423E+00 -0.146E+00  0.117E+01
    0.330E+02  0.141E+02  0.355E+03   -0.329E+02 -0.145E+02 -0.353E+03    0.102E+00  0.455E+00 -0.183E+01   -0.148E+00 -0.826E-02  0.341E-01
    0.330E+02  0.141E+02  0.355E+03   -0.329E+02 -0.145E+02 -0.353E+03    0.102E+00  0.455E+00 -0.183E+01   -0.148E+00 -0.842E-02  0.339E-01
   -0.329E+02  0.140E+02  0.355E+03    0.328E+02 -0.145E+02 -0.353E+03   -0.815E-01  0.470E+00 -0.183E+01    0.152E+00 -0.127E-02  0.277E-01
   -0.329E+02  0.140E+02  0.355E+03    0.328E+02 -0.145E+02 -0.353E+03   -0.815E-01  0.470E+00 -0.183E+01    0.152E+00 -0.169E-02  0.277E-01
    0.510E+01  0.170E+02  0.231E+00   -0.583E+01 -0.159E+02 -0.101E+01    0.706E+00 -0.123E+01  0.138E+01   -0.177E-01  0.613E-01 -0.644E+00
    0.510E+01  0.170E+02  0.230E+00   -0.583E+01 -0.159E+02 -0.101E+01    0.706E+00 -0.123E+01  0.138E+01   -0.177E-01  0.614E-01 -0.644E+00
   -0.515E+01  0.165E+02  0.663E-01    0.590E+01 -0.154E+02 -0.883E+00   -0.712E+00 -0.121E+01  0.141E+01    0.118E-01  0.789E-01 -0.638E+00
   -0.515E+01  0.165E+02  0.673E-01    0.590E+01 -0.154E+02 -0.883E+00   -0.712E+00 -0.121E+01  0.141E+01    0.116E-01  0.783E-01 -0.638E+00
    0.226E+02 -0.164E+02 -0.407E+03   -0.232E+02  0.158E+02  0.411E+03    0.467E+00  0.641E+00 -0.255E+01    0.144E+00 -0.185E-01 -0.141E+01
    0.226E+02 -0.164E+02 -0.407E+03   -0.232E+02  0.158E+02  0.411E+03    0.467E+00  0.641E+00 -0.255E+01    0.145E+00 -0.174E-01 -0.141E+01
   -0.224E+02 -0.167E+02 -0.407E+03    0.230E+02  0.162E+02  0.411E+03   -0.488E+00  0.647E+00 -0.255E+01   -0.145E+00 -0.876E-02 -0.142E+01
   -0.224E+02 -0.167E+02 -0.407E+03    0.230E+02  0.162E+02  0.411E+03   -0.488E+00  0.647E+00 -0.255E+01   -0.145E+00 -0.906E-02 -0.142E+01
   -0.169E+02 -0.167E+02 -0.741E+03    0.162E+02  0.160E+02  0.741E+03    0.791E+00  0.778E+00  0.101E+01   -0.600E-01 -0.178E-01 -0.157E+01
   -0.169E+02 -0.167E+02 -0.741E+03    0.162E+02  0.160E+02  0.741E+03    0.791E+00  0.778E+00  0.101E+01   -0.604E-01 -0.170E-01 -0.158E+01
    0.163E+02 -0.171E+02 -0.741E+03   -0.156E+02  0.164E+02  0.742E+03   -0.737E+00  0.793E+00  0.102E+01    0.725E-01  0.442E-02 -0.158E+01
    0.163E+02 -0.171E+02 -0.741E+03   -0.156E+02  0.164E+02  0.742E+03   -0.737E+00  0.793E+00  0.102E+01    0.721E-01  0.391E-02 -0.158E+01
    0.724E+02  0.299E+02 -0.120E+04   -0.726E+02 -0.288E+02  0.120E+04    0.285E+00 -0.105E+01 -0.555E+01   -0.725E-01 -0.427E-01 -0.459E+00
    0.724E+02  0.299E+02 -0.120E+04   -0.726E+02 -0.288E+02  0.120E+04    0.285E+00 -0.105E+01 -0.555E+01   -0.721E-01 -0.426E-01 -0.459E+00
   -0.723E+02  0.297E+02 -0.120E+04    0.725E+02 -0.286E+02  0.120E+04   -0.293E+00 -0.103E+01 -0.556E+01    0.815E-01 -0.207E-01 -0.458E+00
   -0.723E+02  0.297E+02 -0.120E+04    0.725E+02 -0.286E+02  0.120E+04   -0.293E+00 -0.103E+01 -0.556E+01    0.819E-01 -0.216E-01 -0.457E+00
    0.434E+02 -0.119E+02  0.226E+04   -0.440E+02  0.112E+02 -0.227E+04    0.913E+00  0.601E+00  0.247E+01   -0.331E+00  0.637E-01  0.300E+01
    0.434E+02 -0.119E+02  0.226E+04   -0.440E+02  0.112E+02 -0.227E+04    0.913E+00  0.601E+00  0.247E+01   -0.331E+00  0.635E-01  0.300E+01
   -0.428E+02 -0.123E+02  0.226E+04    0.433E+02  0.116E+02 -0.227E+04   -0.862E+00  0.611E+00  0.251E+01    0.359E+00  0.657E-01  0.294E+01
   -0.428E+02 -0.123E+02  0.226E+04    0.433E+02  0.116E+02 -0.227E+04   -0.862E+00  0.611E+00  0.251E+01    0.359E+00  0.648E-01  0.294E+01
    0.343E+02  0.216E+01  0.161E+04   -0.325E+02 -0.324E+01 -0.161E+04   -0.159E+01  0.942E+00  0.143E+01   -0.200E+00  0.100E+00  0.223E+01
    0.343E+02  0.216E+01  0.161E+04   -0.325E+02 -0.324E+01 -0.161E+04   -0.159E+01  0.942E+00  0.143E+01   -0.200E+00  0.999E-01  0.223E+01
   -0.349E+02  0.184E+01  0.161E+04    0.331E+02 -0.288E+01 -0.161E+04    0.159E+01  0.943E+00  0.146E+01    0.177E+00  0.706E-01  0.221E+01
   -0.349E+02  0.184E+01  0.161E+04    0.331E+02 -0.288E+01 -0.161E+04    0.159E+01  0.943E+00  0.146E+01    0.177E+00  0.700E-01  0.221E+01
   -0.115E+02  0.187E+00  0.722E+03    0.118E+02  0.463E+00 -0.721E+03   -0.409E+00 -0.829E+00 -0.237E+01    0.102E+00  0.112E+00  0.515E+00
   -0.115E+02  0.188E+00  0.722E+03    0.118E+02  0.463E+00 -0.721E+03   -0.409E+00 -0.829E+00 -0.237E+01    0.101E+00  0.111E+00  0.515E+00
    0.116E+02 -0.868E+00  0.722E+03   -0.119E+02  0.155E+01 -0.720E+03    0.398E+00 -0.817E+00 -0.234E+01   -0.112E+00  0.922E-01  0.494E+00
    0.116E+02 -0.868E+00  0.722E+03   -0.119E+02  0.155E+01 -0.720E+03    0.398E+00 -0.817E+00 -0.234E+01   -0.112E+00  0.920E-01  0.494E+00
   -0.432E+01  0.272E+01 -0.476E+02    0.575E+01 -0.204E+01  0.489E+02   -0.152E+01 -0.574E+00  0.410E+00    0.443E-01 -0.498E-01 -0.160E+01
   -0.432E+01  0.272E+01 -0.476E+02    0.575E+01 -0.204E+01  0.489E+02   -0.152E+01 -0.574E+00  0.410E+00    0.441E-01 -0.506E-01 -0.160E+01
    0.443E+01  0.289E+01 -0.479E+02   -0.590E+01 -0.220E+01  0.492E+02    0.153E+01 -0.575E+00  0.425E+00   -0.199E-01 -0.577E-01 -0.162E+01
    0.443E+01  0.289E+01 -0.479E+02   -0.590E+01 -0.220E+01  0.492E+02    0.153E+01 -0.575E+00  0.425E+00   -0.196E-01 -0.586E-01 -0.163E+01
   -0.647E+01 -0.213E+01 -0.715E+03    0.746E+01  0.136E+01  0.719E+03   -0.912E+00  0.892E+00 -0.165E+01   -0.934E-01 -0.107E+00 -0.248E+01
   -0.647E+01 -0.213E+01 -0.715E+03    0.746E+01  0.136E+01  0.719E+03   -0.912E+00  0.892E+00 -0.165E+01   -0.927E-01 -0.109E+00 -0.249E+01
    0.626E+01 -0.226E+01 -0.715E+03   -0.722E+01  0.149E+01  0.719E+03    0.922E+00  0.891E+00 -0.166E+01    0.566E-01 -0.109E+00 -0.247E+01
    0.626E+01 -0.226E+01 -0.715E+03   -0.722E+01  0.149E+01  0.719E+03    0.922E+00  0.891E+00 -0.166E+01    0.577E-01 -0.108E+00 -0.247E+01
    0.201E+02 -0.170E+01 -0.164E+04   -0.188E+02  0.657E+00  0.164E+04   -0.140E+01  0.926E+00 -0.224E+00    0.521E-01  0.674E-01 -0.265E+01
    0.201E+02 -0.169E+01 -0.164E+04   -0.188E+02  0.657E+00  0.164E+04   -0.140E+01  0.926E+00 -0.224E+00    0.516E-01  0.634E-01 -0.264E+01
   -0.193E+02 -0.252E+01 -0.164E+04    0.179E+02  0.151E+01  0.164E+04    0.142E+01  0.934E+00 -0.230E+00   -0.498E-01  0.453E-01 -0.262E+01
   -0.193E+02 -0.251E+01 -0.164E+04    0.179E+02  0.151E+01  0.164E+04    0.142E+01  0.934E+00 -0.230E+00   -0.505E-01  0.441E-01 -0.262E+01
   -0.303E+02 -0.106E+02 -0.216E+04    0.321E+02  0.107E+02  0.217E+04   -0.171E+01 -0.188E-01 -0.719E+00   -0.422E-01 -0.696E-01 -0.172E+01
   -0.303E+02 -0.106E+02 -0.216E+04    0.321E+02  0.107E+02  0.217E+04   -0.171E+01 -0.188E-01 -0.719E+00   -0.403E-01 -0.699E-01 -0.172E+01
    0.299E+02 -0.109E+02 -0.216E+04   -0.317E+02  0.110E+02  0.217E+04    0.169E+01 -0.305E-01 -0.731E+00    0.428E-01 -0.504E-01 -0.174E+01
    0.299E+02 -0.109E+02 -0.216E+04   -0.317E+02  0.110E+02  0.217E+04    0.169E+01 -0.305E-01 -0.731E+00    0.436E-01 -0.535E-01 -0.174E+01
 -----------------------------------------------------------------------------------------------
   -0.345E+00 -0.111E+02  0.210E+02   -0.213E-13 -0.284E-13  0.136E-11    0.341E+00  0.112E+02 -0.377E+01    0.138E-01 -0.117E+00 -0.172E+02
 
 
 POSITION                                       TOTAL-FORCE (eV/Angst)
 -----------------------------------------------------------------------------------
      2.78843      3.69893      0.19911         0.012636     -0.028553     -0.050416
      2.78843      8.57993      0.19911         0.012636     -0.028553     -0.050416
      0.31437      1.25795      0.20196         0.003408     -0.028881     -0.065826
      0.31437      6.13895      0.20196         0.003408     -0.028881     -0.065826
      5.77946      4.47485      1.89582        -0.070883      0.081119     -0.058502
      5.77946      9.35585      1.89582        -0.070883      0.081119     -0.058502
      3.37425      2.03644      1.89746         0.092405      0.055558     -0.071610
      3.37425      6.91744      1.89746         0.092405      0.055558     -0.071610
      2.65408      3.81401      3.53464         0.027584      0.028063      0.008951
      2.65408      8.69501      3.53464         0.027584      0.028063      0.008951
      0.45348      1.37404      3.53540        -0.028468      0.027462     -0.002369
      0.45348      6.25504      3.53540        -0.028468      0.027462     -0.002369
      5.74675      3.62928      5.35940        -0.042472     -0.076199     -0.049962
      5.74675      8.51028      5.35940        -0.042472     -0.076199     -0.049962
      3.41257      1.18717      5.35950         0.040254     -0.056305     -0.041978
      3.41257      6.06817      5.35950         0.040254     -0.056305     -0.041978
      2.71589      4.36330      6.95749         0.021728      0.050336     -0.050342
      2.71589      9.24430      6.95749         0.021728      0.050336     -0.050342
      0.39442      1.92158      6.95793        -0.028611      0.060276     -0.049479
      0.39442      6.80258      6.95793        -0.028611      0.060276     -0.049479
      5.83298      4.42339      8.78528         0.024729      0.022699      0.078325
      5.83298      9.30439      8.78528         0.024729      0.022699      0.078325
      3.32969      1.98166      8.78551         0.001253      0.045434      0.082393
      3.32969      6.86266      8.78551         0.001253      0.045434      0.082393
      2.81835      3.62976     10.44326        -0.006166      0.001495     -0.035153
      2.81835      8.51076     10.44326        -0.006166      0.001495     -0.035153
      0.29598      1.18844     10.44383         0.003733      0.014322     -0.038054
      0.29598      6.06944     10.44383         0.003733      0.014322     -0.038054
      4.24922      0.46259      0.60710        -0.008329     -0.032897      0.001263
      4.24922      5.34359      0.60710        -0.008329     -0.032897      0.001263
      4.90439      2.90219      0.60692        -0.003691     -0.017179     -0.007519
      4.90439      7.78319      0.60692        -0.003691     -0.017179     -0.007519
      1.88191      0.36299      1.82496        -0.002316     -0.035933     -0.027242
      1.88191      5.24399      1.82496        -0.002316     -0.035933     -0.027242
      1.22261      2.80311      1.82293         0.001444     -0.028786     -0.029067
      1.22261      7.68411      1.82293         0.001444     -0.028786     -0.029067
      4.87883      2.94146      3.39293        -0.011410     -0.066281      0.063530
      4.87883      7.82246      3.39293        -0.011410     -0.066281      0.063530
      4.27965      0.49961      3.39485         0.009508     -0.043720      0.044209
      4.27965      5.38061      3.39485         0.009508     -0.043720      0.044209
      1.87416      2.84111      5.41590        -0.045500      0.056164      0.079571
      1.87416      7.72211      5.41590        -0.045500      0.056164      0.079571
      1.23560      0.40091      5.41679         0.037157      0.052889      0.074417
      1.23560      5.28191      5.41679         0.037157      0.052889      0.074417
      4.93587      0.25941      6.81212        -0.014176      0.016261      0.014910
      4.93587      5.14041      6.81212        -0.014176      0.016261      0.014910
      4.22404      2.69988      6.81214         0.019749      0.014809      0.006699
      4.22404      7.58088      6.81214         0.019749      0.014809      0.006699
      1.91702      0.26675      8.97656         0.006021     -0.046746      0.073096
      1.91702      5.14775      8.97656         0.006021     -0.046746      0.073096
      1.19761      2.70633      8.97521        -0.030003     -0.023936      0.079126
      1.19761      7.58733      8.97521        -0.030003     -0.023936      0.079126
      4.89129      2.85557     10.04712         0.061444     -0.026433     -0.022733
      4.89129      7.73657     10.04712         0.061444     -0.026433     -0.022733
      4.27303      0.41465     10.04632        -0.071032     -0.015038     -0.006239
      4.27303      5.29565     10.04632        -0.071032     -0.015038     -0.006239
 -----------------------------------------------------------------------------------
    total drift:                                0.009513      0.014225     -0.023090
  FORCES: max atom, RMS     0.129435    0.075070
  Number: max atom                 7
  FORCE total and by dimension    0.561775    0.092405


--------------------------------------------------------------------------------------------------------



  FREE ENERGIE OF THE ION-ELECTRON SYSTEM (eV)
  ---------------------------------------------------
  free  energy   TOTEN  =      -325.65634996 eV

  energy  without entropy=     -325.65634996  energy(sigma->0) =     -325.65634996
 


--------------------------------------------------------------------------------------------------------


    POTLOK:  cpu time    0.99: real time    0.99


--------------------------------------------------------------------------------------------------------


 stress matrix after NEB project (eV)
     -6.28763     -0.00305     -0.18657
     -0.00305      0.01919      1.10971
     -0.18657      1.10971     -5.74641
  FORCES: max atom, RMS     0.129435    0.075070
  FORCE total and by dimension    0.561775    0.092405
  Stress total and by dimension    8.665360    6.287629
 writing wavefunctions
     LOOP+:  cpu time 1954.57: real time 1954.04
    4ORBIT:  cpu time    0.00: real time    0.00
 


 total charge     
 
# of ion     s       p       d       tot
----------------------------------------
  1        1.087   1.337   0.000   2.424
  2        1.087   1.337   0.000   2.424
  3        1.087   1.337   0.000   2.424
  4        1.087   1.337   0.000   2.424
  5        1.012   1.427   0.000   2.439
  6        1.012   1.427   0.000   2.439
  7        1.012   1.426   0.000   2.439
  8        1.012   1.426   0.000   2.439
  9        1.065   1.339   0.000   2.404
 10        1.065   1.339   0.000   2.404
 11        1.065   1.339   0.000   2.404
 12        1.065   1.339   0.000   2.404
 13        1.040   1.394   0.000   2.434
 14        1.040   1.394   0.000   2.434
 15        1.040   1.395   0.000   2.434
 16        1.040   1.395   0.000   2.434
 17        1.056   1.361   0.000   2.417
 18        1.056   1.361   0.000   2.417
 19        1.057   1.361   0.000   2.417
 20        1.057   1.361   0.000   2.417
 21        1.039   1.411   0.000   2.449
 22        1.039   1.411   0.000   2.449
 23        1.038   1.411   0.000   2.449
 24        1.038   1.411   0.000   2.449
 25        1.075   1.366   0.000   2.440
 26        1.075   1.366   0.000   2.440
 27        1.075   1.366   0.000   2.440
 28        1.075   1.366   0.000   2.440
 29        0.484   0.570   8.484   9.538
 30        0.484   0.570   8.484   9.538
 31        0.484   0.570   8.484   9.538
 32        0.484   0.570   8.484   9.538
 33        0.456   0.605   8.412   9.472
 34        0.456   0.605   8.412   9.472
 35        0.456   0.605   8.412   9.473
 36        0.456   0.605   8.412   9.473
 37        0.473   0.591   8.445   9.510
 38        0.473   0.591   8.445   9.510
 39        0.474   0.591   8.445   9.510
 40        0.474   0.591   8.445   9.510
 41        0.476   0.620   8.433   9.529
 42        0.476   0.620   8.433   9.529
 43        0.476   0.620   8.434   9.530
 44        0.476   0.620   8.434   9.530
 45        0.482   0.619   8.428   9.529
 46        0.482   0.619   8.428   9.529
 47        0.482   0.619   8.426   9.527
 48        0.482   0.619   8.426   9.527
 49        0.485   0.621   8.437   9.543
 50        0.485   0.621   8.437   9.543
 51        0.484   0.620   8.438   9.543
 52        0.484   0.620   8.439   9.543
 53        0.492   0.570   8.482   9.544
 54        0.492   0.570   8.482   9.544
 55        0.493   0.571   8.486   9.550
 56        0.493   0.571   8.486   9.550
------------------------------------------------
tot       42.888  55.320 236.491 334.699
 
 BZINTS: Fermi energy:  2.340500;420.000000 electrons
         Band energy:-744.152759;  BLOECHL correction: -0.010791

 total amount of memory used by VASP on root node   304274. kBytes
========================================================================

   base      :      30000. kBytes
   nonlr-proj:      17942. kBytes
   fftplans  :      16772. kBytes
   grid      :      26376. kBytes
   one-center:        295. kBytes
   wavefun   :     212889. kBytes
 
  
  
 General timing and accounting informations for this job:
 ========================================================
  
                  Total CPU time used (sec):     2004.845
                            User time (sec):     2000.443
                          System time (sec):        4.402
                         Elapsed time (sec):     2004.466
  
                   Maximum memory used (kb):      769632.
                   Average memory used (kb):           0.
  
                          Minor page faults:        30307
                          Major page faults:            0
                 Voluntary context switches:          500
