 running on   12 total cores
 distrk:  each k-point on   12 cores,    1 groups
 distr:  one band on    3 cores,    4 groups
 using from now: INCAR     
 vasp.5.3.3 18Dez12 (build Jun 18 2015 10:56:51) complex                        
  
 POSCAR found type information on POSCAR  P  Ni
 POSCAR found :  2 types and      28 ions
 scaLAPACK will be used
 LDA part: xc-table for Pade appr. of Perdew
 POSCAR found type information on POSCAR  P  Ni
 POSCAR found :  2 types and      28 ions



 VERY BAD NEWS! internal error in subroutine IBZKPT:
 Reciprocal lattice and k-lattice belong to different class of lattices. Often results are still useful...      48

 VERY BAD NEWS! internal error in subroutine IBZKPT:
 Reciprocal lattice and k-lattice belong to different class of lattices. Often results are still useful...      48


 VERY BAD NEWS! internal error in subroutine IBZKPT:
 Reciprocal lattice and k-lattice belong to different class of lattices. Often results are still useful...      48


 VERY BAD NEWS! internal error in subroutine IBZKPT:
 Reciprocal lattice and k-lattice belong to different class of lattices. Often results are still useful...      48


 VERY BAD NEWS! internal error in subroutine IBZKPT:
 Reciprocal lattice and k-lattice belong to different class of lattices. Often results are still useful...      48


 VERY BAD NEWS! internal error in subroutine IBZKPT:
 Reciprocal lattice and k-lattice belong to different class of lattices. Often results are still useful...      48


 VERY BAD NEWS! internal error in subroutine IBZKPT:
 Reciprocal lattice and k-lattice belong to different class of lattices. Often results are still useful...      48


 VERY BAD NEWS! internal error in subroutine IBZKPT:
 Reciprocal lattice and k-lattice belong to different class of lattices. Often results are still useful...      48


 VERY BAD NEWS! internal error in subroutine IBZKPT:
 Reciprocal lattice and k-lattice belong to different class of lattices. Often results are still useful...      48


 VERY BAD NEWS! internal error in subroutine IBZKPT:
 Reciprocal lattice and k-lattice belong to different class of lattices. Often results are still useful...      48


 VERY BAD NEWS! internal error in subroutine IBZKPT:
 Reciprocal lattice and k-lattice belong to different class of lattices. Often results are still useful...      48


 VERY BAD NEWS! internal error in subroutine IBZKPT:
 Reciprocal lattice and k-lattice belong to different class of lattices. Often results are still useful...      48
 POSCAR, INCAR and KPOINTS ok, starting setup
 FFT: planning ...
 WAVECAR not read
 entering main loop
       N       E                     dE             d eps       ncg     rms          rms(c)
DAV:   1     0.174994129572E+04    0.17499E+04   -0.84938E+04  2240   0.148E+03
DAV:   2     0.993760491718E+02   -0.16506E+04   -0.15546E+04  2240   0.362E+02
DAV:   3    -0.141486206913E+03   -0.24086E+03   -0.22252E+03  2528   0.163E+02
DAV:   4    -0.161500340899E+03   -0.20014E+02   -0.19304E+02  2648   0.435E+01
DAV:   5    -0.162282838669E+03   -0.78250E+00   -0.77904E+00  2752   0.858E+00    0.430E+01
RMM:   6    -0.216912440019E+03   -0.54630E+02   -0.48407E+02  2300   0.948E+01    0.568E+01
RMM:   7    -0.145191064435E+03    0.71721E+02   -0.13292E+02  2243   0.506E+01    0.153E+01
RMM:   8    -0.146888836451E+03   -0.16978E+01   -0.11622E+01  2249   0.102E+01    0.307E+01
RMM:   9    -0.146532083400E+03    0.35675E+00   -0.83586E+00  2247   0.974E+00    0.177E+01
RMM:  10    -0.145978949127E+03    0.55313E+00   -0.32557E+00  2245   0.696E+00    0.119E+01
RMM:  11    -0.147035857171E+03   -0.10569E+01   -0.31528E+00  2244   0.711E+00    0.958E+00
RMM:  12    -0.147289569596E+03   -0.25371E+00   -0.16543E+00  2241   0.501E+00    0.602E+00
RMM:  13    -0.148104322214E+03   -0.81475E+00   -0.13566E+00  2241   0.379E+00    0.615E+00
RMM:  14    -0.148252280925E+03   -0.14796E+00   -0.91591E-01  2240   0.333E+00    0.288E+00
RMM:  15    -0.148342871713E+03   -0.90591E-01   -0.19664E-01  2240   0.138E+00    0.274E+00
RMM:  16    -0.148313439761E+03    0.29432E-01   -0.83506E-02  2248   0.104E+00    0.127E+00
RMM:  17    -0.148319129643E+03   -0.56899E-02   -0.47974E-02  2240   0.642E-01    0.100E+00
RMM:  18    -0.148312207649E+03    0.69220E-02   -0.18940E-02  2241   0.480E-01    0.619E-01
RMM:  19    -0.148320961892E+03   -0.87542E-02   -0.10820E-02  2241   0.334E-01    0.559E-01
RMM:  20    -0.148325413019E+03   -0.44511E-02   -0.57824E-03  2240   0.288E-01    0.345E-01
RMM:  21    -0.148336877524E+03   -0.11465E-01   -0.73244E-03  2240   0.210E-01    0.276E-01
RMM:  22    -0.148339140132E+03   -0.22626E-02   -0.18528E-03  2053   0.124E-01    0.156E-01
RMM:  23    -0.148342228131E+03   -0.30880E-02   -0.20371E-03  1986   0.102E-01    0.116E-01
RMM:  24    -0.148343115377E+03   -0.88725E-03   -0.68383E-04  1785   0.728E-02    0.607E-02
RMM:  25    -0.148343752847E+03   -0.63747E-03   -0.61754E-04  1731   0.575E-02    0.413E-02
RMM:  26    -0.148343864125E+03   -0.11128E-03   -0.13193E-04  1419   0.365E-02    0.326E-02
RMM:  27    -0.148343945774E+03   -0.81649E-04   -0.76142E-05  1378   0.279E-02
   1 F= -.14834395E+03 E0= -.14834013E+03  d E =-.148344E+03  mag=     0.0116
 curvature:   0.00 expect dE= 0.000E+00 dE for cont linesearch  0.000E+00
 trial: gam= 0.00000 g(F)=  0.751E+00 g(S)=  0.000E+00 ort = 0.000E+00 (trialstep = 0.100E+01)
 search vector abs. value=  0.751E+00
 bond charge predicted
       N       E                     dE             d eps       ncg     rms          rms(c)
DAV:   1    -0.148941885186E+03   -0.59802E+00   -0.20347E+01  2328   0.117E+01    0.763E-01
RMM:   2    -0.149020904830E+03   -0.79020E-01   -0.85946E-01  2241   0.325E+00    0.656E-01
RMM:   3    -0.149032195321E+03   -0.11290E-01   -0.11302E-01  2454   0.110E+00    0.932E-01
RMM:   4    -0.149024925422E+03    0.72699E-02   -0.16805E-02  2345   0.475E-01    0.457E-01
RMM:   5    -0.149023486231E+03    0.14392E-02   -0.57237E-03  2242   0.288E-01    0.372E-01
RMM:   6    -0.149023849879E+03   -0.36365E-03   -0.68755E-03  2240   0.306E-01    0.476E-01
RMM:   7    -0.149022241575E+03    0.16083E-02   -0.55305E-03  2240   0.266E-01    0.233E-01
RMM:   8    -0.149021838045E+03    0.40353E-03   -0.11287E-03  2128   0.131E-01    0.914E-02
RMM:   9    -0.149021723380E+03    0.11466E-03   -0.21489E-04  1350   0.594E-02    0.874E-02
RMM:  10    -0.149021638117E+03    0.85263E-04   -0.14876E-04  1258   0.532E-02
   2 F= -.14902164E+03 E0= -.14901900E+03  d E =-.677692E+00  mag=     0.0024
 ZBRENT: can't locate minimum, use default step
 trial-energy change:   -0.677692  1 .order   -0.677126   -0.750796   -0.603457
 step:   4.0000(harm=  5.0957)  dis= 0.17425  next Energy=  -150.256872 (dE=-0.191E+01)
 bond charge predicted
       N       E                     dE             d eps       ncg     rms          rms(c)
DAV:   1    -0.149441017419E+03   -0.41929E+00   -0.18392E+02  2240   0.359E+01    0.232E+00
RMM:   2    -0.150153253286E+03   -0.71224E+00   -0.78293E+00  2242   0.987E+00    0.206E+00
RMM:   3    -0.150238058090E+03   -0.84805E-01   -0.10457E+00  2440   0.341E+00    0.265E+00
RMM:   4    -0.150178586361E+03    0.59472E-01   -0.15560E-01  2349   0.146E+00    0.120E+00
RMM:   5    -0.150166861193E+03    0.11725E-01   -0.50308E-02  2240   0.864E-01    0.109E+00
RMM:   6    -0.150172849515E+03   -0.59883E-02   -0.62616E-02  2240   0.916E-01    0.149E+00
RMM:   7    -0.150154423639E+03    0.18426E-01   -0.46372E-02  2240   0.794E-01    0.487E-01
RMM:   8    -0.150152932623E+03    0.14910E-02   -0.82255E-03  2251   0.332E-01    0.300E-01
RMM:   9    -0.150151513899E+03    0.14187E-02   -0.14356E-03  2203   0.140E-01    0.126E-01
RMM:  10    -0.150151371315E+03    0.14258E-03   -0.11076E-03  2157   0.119E-01    0.161E-01
RMM:  11    -0.150151108450E+03    0.26286E-03   -0.13409E-03  2224   0.112E-01    0.748E-02
RMM:  12    -0.150151104755E+03    0.36949E-05   -0.25368E-04  1499   0.627E-02
   3 F= -.15015110E+03 E0= -.15015402E+03  d E =-.180716E+01  mag=     0.0002
 curvature:  -2.37 expect dE=-0.595E+00 dE for cont linesearch -0.530E-01
 ZBRENT: extrapolating
 opt :   4.8210  next Energy=  -150.204325 (dE=-0.186E+01)
 bond charge predicted
       N       E                     dE             d eps       ncg     rms          rms(c)
DAV:   1    -0.150147743017E+03    0.33654E-02   -0.13682E+01  2296   0.961E+00    0.615E-01
RMM:   2    -0.150197162260E+03   -0.49419E-01   -0.54526E-01  2240   0.269E+00    0.500E-01
RMM:   3    -0.150205663237E+03   -0.85010E-02   -0.74163E-02  2475   0.890E-01    0.825E-01
RMM:   4    -0.150199484595E+03    0.61786E-02   -0.11122E-02  2340   0.397E-01    0.282E-01
RMM:   5    -0.150199182290E+03    0.30230E-03   -0.38291E-03  2227   0.238E-01    0.306E-01
RMM:   6    -0.150198903644E+03    0.27865E-03   -0.53389E-03  2240   0.252E-01    0.303E-01
RMM:   7    -0.150198111229E+03    0.79242E-03   -0.23620E-03  2224   0.187E-01    0.618E-02
RMM:   8    -0.150198050338E+03    0.60891E-04   -0.19290E-04  1307   0.555E-02
   4 F= -.15019805E+03 E0= -.15020224E+03  d E =-.185410E+01  mag=     0.0000
 curvature:  -2.38 expect dE=-0.873E+00 dE for cont linesearch -0.116E-02
 trial: gam= 0.51458 g(F)=  0.367E+00 g(S)=  0.000E+00 ort =-0.191E-01 (trialstep = 0.176E+01)
 search vector abs. value=  0.546E+00
 bond charge predicted
       N       E                     dE             d eps       ncg     rms          rms(c)
DAV:   1    -0.150620055330E+03   -0.42194E+00   -0.74925E+01  2240   0.224E+01    0.117E+00
RMM:   2    -0.150740539331E+03   -0.12048E+00   -0.13516E+00  2240   0.435E+00    0.142E+00
RMM:   3    -0.150748465181E+03   -0.79258E-02   -0.20311E-01  2451   0.151E+00    0.116E+00
RMM:   4    -0.150735826138E+03    0.12639E-01   -0.29031E-02  2314   0.601E-01    0.576E-01
RMM:   5    -0.150735805346E+03    0.20793E-04   -0.16392E-02  2253   0.481E-01    0.641E-01
RMM:   6    -0.150734139029E+03    0.16663E-02   -0.12334E-02  2241   0.426E-01    0.506E-01
RMM:   7    -0.150731984148E+03    0.21549E-02   -0.58389E-03  2240   0.305E-01    0.248E-01
RMM:   8    -0.150731594790E+03    0.38936E-03   -0.16017E-03  2120   0.158E-01    0.140E-01
RMM:   9    -0.150731406918E+03    0.18787E-03   -0.33536E-04  1708   0.779E-02    0.784E-02
RMM:  10    -0.150731350116E+03    0.56802E-04   -0.17569E-04  1284   0.589E-02
   5 F= -.15073135E+03 E0= -.15073503E+03  d E =-.533300E+00  mag=     0.0000
 trial-energy change:   -0.533300  1 .order   -0.533795   -0.630522   -0.437067
 step:   5.7500(harm=  5.7500)  dis= 0.14271  next Energy=  -151.225572 (dE=-0.103E+01)
 bond charge predicted
       N       E                     dE             d eps       ncg     rms          rms(c)
DAV:   1    -0.150616031520E+03    0.11538E+00   -0.39404E+02  2240   0.536E+01    0.263E+00
RMM:   2    -0.151320585604E+03   -0.70455E+00   -0.77935E+00  2240   0.101E+01    0.329E+00
RMM:   3    -0.151356665309E+03   -0.36080E-01   -0.10519E+00  2446   0.345E+00    0.267E+00
RMM:   4    -0.151294281123E+03    0.62384E-01   -0.15058E-01  2324   0.135E+00    0.138E+00
RMM:   5    -0.151291943933E+03    0.23372E-02   -0.80417E-02  2253   0.107E+00    0.148E+00
RMM:   6    -0.151281052192E+03    0.10892E-01   -0.66209E-02  2240   0.972E-01    0.102E+00
RMM:   7    -0.151271392766E+03    0.96594E-02   -0.31029E-02  2242   0.695E-01    0.456E-01
RMM:   8    -0.151270392577E+03    0.10002E-02   -0.73765E-03  2240   0.335E-01    0.341E-01
RMM:   9    -0.151269203013E+03    0.11896E-02   -0.21898E-03  2198   0.194E-01    0.161E-01
RMM:  10    -0.151269051555E+03    0.15146E-03   -0.91123E-04  2051   0.118E-01    0.129E-01
RMM:  11    -0.151268952280E+03    0.99275E-04   -0.62696E-04  2107   0.790E-02
   6 F= -.15126895E+03 E0= -.15127152E+03  d E =-.107090E+01  mag=     0.0000
 curvature:  -4.40 expect dE=-0.699E+00 dE for cont linesearch -0.459E-02
 trial: gam= 0.31056 g(F)=  0.159E+00 g(S)=  0.000E+00 ort = 0.239E-01 (trialstep = 0.256E+01)
 search vector abs. value=  0.226E+00
 bond charge predicted
       N       E                     dE             d eps       ncg     rms          rms(c)
DAV:   1    -0.151496559870E+03   -0.22751E+00   -0.56133E+01  2256   0.194E+01    0.107E+00
RMM:   2    -0.151611234165E+03   -0.11467E+00   -0.12518E+00  2242   0.411E+00    0.133E+00
RMM:   3    -0.151614251992E+03   -0.30178E-02   -0.17591E-01  2446   0.142E+00    0.986E-01
RMM:   4    -0.151605703150E+03    0.85488E-02   -0.24733E-02  2319   0.570E-01    0.548E-01
RMM:   5    -0.151604320554E+03    0.13826E-02   -0.13253E-02  2244   0.433E-01    0.542E-01
RMM:   6    -0.151604783693E+03   -0.46314E-03   -0.13025E-02  2240   0.424E-01    0.621E-01
RMM:   7    -0.151601461836E+03    0.33219E-02   -0.69967E-03  2240   0.336E-01    0.199E-01
RMM:   8    -0.151601178112E+03    0.28372E-03   -0.11859E-03  2096   0.132E-01    0.999E-02
RMM:   9    -0.151601042882E+03    0.13523E-03   -0.21620E-04  1358   0.585E-02    0.714E-02
RMM:  10    -0.151601005708E+03    0.37174E-04   -0.12720E-04  1250   0.506E-02
   7 F= -.15160101E+03 E0= -.15160230E+03  d E =-.332053E+00  mag=     0.0000
 trial-energy change:   -0.332053  1 .order   -0.333362   -0.426091   -0.240633
 step:   6.2689(harm=  5.8847)  dis= 0.11646  next Energy=  -151.771193 (dE=-0.502E+00)
 bond charge predicted
       N       E                     dE             d eps       ncg     rms          rms(c)
DAV:   1    -0.151552322129E+03    0.48721E-01   -0.11864E+02  2248   0.284E+01    0.156E+00
RMM:   2    -0.151812622065E+03   -0.26030E+00   -0.27179E+00  2242   0.602E+00    0.232E+00
RMM:   3    -0.151801200106E+03    0.11422E-01   -0.38359E-01  2435   0.212E+00    0.132E+00
RMM:   4    -0.151786251580E+03    0.14949E-01   -0.47887E-02  2328   0.764E-01    0.827E-01
RMM:   5    -0.151784521872E+03    0.17297E-02   -0.28953E-02  2242   0.630E-01    0.856E-01
RMM:   6    -0.151782713860E+03    0.18080E-02   -0.24885E-02  2240   0.594E-01    0.743E-01
RMM:   7    -0.151777536393E+03    0.51775E-02   -0.12821E-02  2240   0.458E-01    0.286E-01
RMM:   8    -0.151776986238E+03    0.55015E-03   -0.24556E-03  2176   0.192E-01    0.150E-01
RMM:   9    -0.151776729130E+03    0.25711E-03   -0.49711E-04  1835   0.835E-02    0.105E-01
RMM:  10    -0.151776645112E+03    0.84018E-04   -0.23654E-04  1437   0.632E-02
   8 F= -.15177665E+03 E0= -.15177742E+03  d E =-.507693E+00  mag=    -0.0000
 curvature:  -3.95 expect dE=-0.453E+00 dE for cont linesearch -0.903E-04
 trial: gam= 0.74359 g(F)=  0.115E+00 g(S)=  0.000E+00 ort = 0.227E-02 (trialstep = 0.308E+01)
 search vector abs. value=  0.243E+00
 bond charge predicted
       N       E                     dE             d eps       ncg     rms          rms(c)
DAV:   1    -0.151929984746E+03   -0.15326E+00   -0.70902E+01  2240   0.218E+01    0.136E+00
RMM:   2    -0.152117044421E+03   -0.18706E+00   -0.17644E+00  2240   0.485E+00    0.253E+00
RMM:   3    -0.152079701338E+03    0.37343E-01   -0.29063E-01  2370   0.197E+00    0.113E+00
RMM:   4    -0.152073791002E+03    0.59103E-02   -0.55845E-02  2342   0.893E-01    0.781E-01
RMM:   5    -0.152067899209E+03    0.58918E-02   -0.17077E-02  2246   0.497E-01    0.570E-01
RMM:   6    -0.152068464680E+03   -0.56547E-03   -0.14985E-02  2242   0.471E-01    0.652E-01
RMM:   7    -0.152065284020E+03    0.31807E-02   -0.88696E-03  2240   0.361E-01    0.356E-01
RMM:   8    -0.152064373723E+03    0.91030E-03   -0.23075E-03  2172   0.189E-01    0.124E-01
RMM:   9    -0.152064401816E+03   -0.28093E-04   -0.50620E-04  1902   0.876E-02
   9 F= -.15206440E+03 E0= -.15206715E+03  d E =-.287757E+00  mag=     0.0000
 trial-energy change:   -0.287757  1 .order   -0.286664   -0.357646   -0.215681
 step:   7.2875(harm=  7.7485)  dis= 0.19518  next Energy=  -152.214883 (dE=-0.438E+00)
 bond charge predicted
       N       E                     dE             d eps       ncg     rms          rms(c)
DAV:   1    -0.151949458146E+03    0.11492E+00   -0.13368E+02  2240   0.303E+01    0.188E+00
RMM:   2    -0.152311606545E+03   -0.36215E+00   -0.34150E+00  2240   0.666E+00    0.351E+00
RMM:   3    -0.152241404571E+03    0.70202E-01   -0.55454E-01  2350   0.272E+00    0.159E+00
RMM:   4    -0.152228662119E+03    0.12742E-01   -0.10651E-01  2344   0.123E+00    0.108E+00
RMM:   5    -0.152217863877E+03    0.10798E-01   -0.33731E-02  2246   0.698E-01    0.792E-01
RMM:   6    -0.152219194565E+03   -0.13307E-02   -0.28356E-02  2242   0.651E-01    0.934E-01
RMM:   7    -0.152214724254E+03    0.44703E-02   -0.18435E-02  2240   0.521E-01    0.700E-01
RMM:   8    -0.152210936009E+03    0.37882E-02   -0.61308E-03  2240   0.312E-01    0.130E-01
RMM:   9    -0.152210882301E+03    0.53707E-04   -0.66940E-04  1995   0.943E-02
  10 F= -.15221088E+03 E0= -.15221521E+03  d E =-.434237E+00  mag=     0.0000
 curvature:  -8.02 expect dE=-0.721E+00 dE for cont linesearch -0.115E-03
 trial: gam= 0.72876 g(F)=  0.899E-01 g(S)=  0.000E+00 ort =-0.187E-02 (trialstep = 0.392E+01)
 search vector abs. value=  0.216E+00
 bond charge predicted
       N       E                     dE             d eps       ncg     rms          rms(c)
DAV:   1    -0.152206996753E+03    0.39393E-02   -0.11856E+02  2240   0.284E+01    0.169E+00
RMM:   2    -0.152470974476E+03   -0.26398E+00   -0.25984E+00  2240   0.598E+00    0.299E+00
RMM:   3    -0.152428523709E+03    0.42451E-01   -0.42486E-01  2407   0.235E+00    0.160E+00
RMM:   4    -0.152417704282E+03    0.10819E-01   -0.86825E-02  2336   0.111E+00    0.115E+00
RMM:   5    -0.152406971318E+03    0.10733E-01   -0.32989E-02  2248   0.719E-01    0.774E-01
RMM:   6    -0.152406960560E+03    0.10757E-04   -0.24880E-02  2242   0.606E-01    0.819E-01
RMM:   7    -0.152402819266E+03    0.41413E-02   -0.14597E-02  2240   0.464E-01    0.502E-01
RMM:   8    -0.152400814482E+03    0.20048E-02   -0.38363E-03  2238   0.249E-01    0.137E-01
RMM:   9    -0.152401004884E+03   -0.19040E-03   -0.10370E-03  2034   0.119E-01    0.222E-01
RMM:  10    -0.152400575317E+03    0.42957E-03   -0.48833E-04  1858   0.944E-02    0.372E-02
RMM:  11    -0.152400598908E+03   -0.23592E-04   -0.17654E-04  1289   0.497E-02
  11 F= -.15240060E+03 E0= -.15240683E+03  d E =-.189717E+00  mag=     0.0000
 trial-energy change:   -0.189717  1 .order   -0.186854   -0.346790   -0.026919
 step:   4.2297(harm=  4.2478)  dis= 0.09140  next Energy=  -152.401671 (dE=-0.191E+00)
 bond charge predicted
       N       E                     dE             d eps       ncg     rms          rms(c)
DAV:   1    -0.152400593860E+03   -0.18543E-04   -0.74666E-01  2400   0.223E+00    0.129E-01
RMM:   2    -0.152402137936E+03   -0.15441E-02   -0.15602E-02  2240   0.454E-01    0.215E-01
RMM:   3    -0.152402013884E+03    0.12405E-03   -0.25469E-03  2414   0.178E-01    0.129E-01
RMM:   4    -0.152401903895E+03    0.10999E-03   -0.38445E-04  1751   0.749E-02    0.848E-02
RMM:   5    -0.152401860257E+03    0.43638E-04   -0.21677E-04  1319   0.672E-02
  12 F= -.15240186E+03 E0= -.15240818E+03  d E =-.190978E+00  mag=     0.0000
 curvature:  -5.17 expect dE=-0.337E+00 dE for cont linesearch -0.299E-04
 trial: gam= 0.57277 g(F)=  0.652E-01 g(S)=  0.000E+00 ort = 0.112E-02 (trialstep = 0.398E+01)
 search vector abs. value=  0.137E+00
 bond charge predicted
       N       E                     dE             d eps       ncg     rms          rms(c)
DAV:   1    -0.152488329104E+03   -0.86425E-01   -0.10509E+02  2240   0.268E+01    0.151E+00
RMM:   2    -0.152687042775E+03   -0.19871E+00   -0.16254E+00  2240   0.495E+00    0.329E+00
RMM:   3    -0.152604161389E+03    0.82881E-01   -0.30906E-01  2330   0.211E+00    0.107E+00
RMM:   4    -0.152602187068E+03    0.19743E-02   -0.58306E-02  2316   0.887E-01    0.993E-01
RMM:   5    -0.152595666217E+03    0.65209E-02   -0.26434E-02  2244   0.627E-01    0.725E-01
RMM:   6    -0.152593443849E+03    0.22224E-02   -0.16464E-02  2242   0.509E-01    0.534E-01
RMM:   7    -0.152592405042E+03    0.10388E-02   -0.82939E-03  2240   0.352E-01    0.450E-01
RMM:   8    -0.152590631266E+03    0.17738E-02   -0.26743E-03  2160   0.213E-01    0.725E-02
RMM:   9    -0.152590712370E+03   -0.81103E-04   -0.43487E-04  1802   0.768E-02
  13 F= -.15259071E+03 E0= -.15260152E+03  d E =-.188852E+00  mag=    -0.0000
 trial-energy change:   -0.188852  1 .order   -0.187342   -0.262001   -0.112682
 step:   6.7055(harm=  6.9841)  dis= 0.10491  next Energy=  -152.629770 (dE=-0.228E+00)
 bond charge predicted
       N       E                     dE             d eps       ncg     rms          rms(c)
DAV:   1    -0.152582833774E+03    0.77975E-02   -0.49033E+01  2240   0.182E+01    0.992E-01
RMM:   2    -0.152665039831E+03   -0.82206E-01   -0.71227E-01  2240   0.327E+00    0.204E+00
RMM:   3    -0.152636337064E+03    0.28703E-01   -0.13207E-01  2330   0.136E+00    0.716E-01
RMM:   4    -0.152634894752E+03    0.14423E-02   -0.23504E-02  2320   0.559E-01    0.625E-01
RMM:   5    -0.152632260916E+03    0.26338E-02   -0.11190E-02  2240   0.410E-01    0.454E-01
RMM:   6    -0.152631793095E+03    0.46782E-03   -0.75423E-03  2240   0.342E-01    0.392E-01
RMM:   7    -0.152630945504E+03    0.84759E-03   -0.37795E-03  2240   0.243E-01    0.279E-01
RMM:   8    -0.152630267812E+03    0.67769E-03   -0.10471E-03  2026   0.132E-01    0.406E-02
RMM:   9    -0.152630290609E+03   -0.22797E-04   -0.14081E-04  1292   0.474E-02
  14 F= -.15263029E+03 E0= -.15264230E+03  d E =-.228430E+00  mag=    -0.0000
 curvature:  -7.23 expect dE=-0.369E+00 dE for cont linesearch -0.159E-04
 trial: gam= 0.72891 g(F)=  0.510E-01 g(S)=  0.000E+00 ort = 0.550E-03 (trialstep = 0.453E+01)
 search vector abs. value=  0.125E+00
 bond charge predicted
       N       E                     dE             d eps       ncg     rms          rms(c)
DAV:   1    -0.152634808530E+03   -0.45407E-02   -0.14264E+02  2240   0.314E+01    0.178E+00
RMM:   2    -0.152919898941E+03   -0.28509E+00   -0.22754E+00  2240   0.600E+00    0.395E+00
RMM:   3    -0.152784194148E+03    0.13570E+00   -0.42359E-01  2322   0.255E+00    0.107E+00
RMM:   4    -0.152780619073E+03    0.35751E-02   -0.64892E-02  2311   0.932E-01    0.968E-01
RMM:   5    -0.152773813551E+03    0.68055E-02   -0.32051E-02  2240   0.675E-01    0.733E-01
RMM:   6    -0.152772397730E+03    0.14158E-02   -0.22772E-02  2242   0.598E-01    0.595E-01
RMM:   7    -0.152768752667E+03    0.36451E-02   -0.76577E-03  2240   0.357E-01    0.183E-01
RMM:   8    -0.152768546027E+03    0.20664E-03   -0.10516E-03  2074   0.125E-01    0.105E-01
RMM:   9    -0.152768413931E+03    0.13210E-03   -0.20373E-04  1364   0.554E-02    0.497E-02
RMM:  10    -0.152768411547E+03    0.23845E-05   -0.13218E-04  1278   0.492E-02
  15 F= -.15276841E+03 E0= -.15277934E+03  d E =-.138121E+00  mag=    -0.0000
 trial-energy change:   -0.138121  1 .order   -0.134584   -0.232798   -0.036369
 step:   5.2697(harm=  5.3633)  dis= 0.06450  next Energy=  -152.771418 (dE=-0.141E+00)
 bond charge predicted
       N       E                     dE             d eps       ncg     rms          rms(c)
DAV:   1    -0.152768290834E+03    0.12310E-03   -0.38061E+00  2304   0.503E+00    0.273E-01
RMM:   2    -0.152774747844E+03   -0.64570E-02   -0.52740E-02  2240   0.904E-01    0.603E-01
RMM:   3    -0.152772183808E+03    0.25640E-02   -0.98552E-03  2334   0.382E-01    0.176E-01
RMM:   4    -0.152772042006E+03    0.14180E-03   -0.12785E-03  2214   0.125E-01    0.170E-01
RMM:   5    -0.152771865805E+03    0.17620E-03   -0.83914E-04  1946   0.111E-01    0.118E-01
RMM:   6    -0.152771834241E+03    0.31565E-04   -0.48061E-04  1884   0.878E-02
  16 F= -.15277183E+03 E0= -.15278263E+03  d E =-.141544E+00  mag=    -0.0000
 curvature:  -6.43 expect dE=-0.319E+00 dE for cont linesearch -0.475E-04
 trial: gam= 0.88155 g(F)=  0.497E-01 g(S)=  0.000E+00 ort = 0.961E-03 (trialstep = 0.393E+01)
 search vector abs. value=  0.148E+00
 bond charge predicted
       N       E                     dE             d eps       ncg     rms          rms(c)
DAV:   1    -0.152797753122E+03   -0.25887E-01   -0.13895E+02  2240   0.310E+01    0.165E+00
RMM:   2    -0.153002529616E+03   -0.20478E+00   -0.17416E+00  2240   0.531E+00    0.330E+00
RMM:   3    -0.152913914560E+03    0.88615E-01   -0.32634E-01  2299   0.222E+00    0.108E+00
RMM:   4    -0.152910956186E+03    0.29584E-02   -0.59907E-02  2281   0.898E-01    0.103E+00
RMM:   5    -0.152903847667E+03    0.71085E-02   -0.31378E-02  2240   0.681E-01    0.742E-01
RMM:   6    -0.152902081086E+03    0.17666E-02   -0.19574E-02  2242   0.558E-01    0.580E-01
RMM:   7    -0.152900438614E+03    0.16425E-02   -0.81514E-03  2240   0.360E-01    0.463E-01
RMM:   8    -0.152898644982E+03    0.17936E-02   -0.25658E-03  2150   0.209E-01    0.660E-02
RMM:   9    -0.152898640067E+03    0.49157E-05   -0.22325E-04  1417   0.567E-02
  17 F= -.15289864E+03 E0= -.15290915E+03  d E =-.126806E+00  mag=     0.0000
 trial-energy change:   -0.126806  1 .order   -0.124215   -0.198654   -0.049777
 step:   5.0915(harm=  5.2481)  dis= 0.07640  next Energy=  -152.906037 (dE=-0.134E+00)
 bond charge predicted
       N       E                     dE             d eps       ncg     rms          rms(c)
DAV:   1    -0.152897741279E+03    0.90370E-03   -0.11916E+01  2288   0.892E+00    0.473E-01
RMM:   2    -0.152913734971E+03   -0.15994E-01   -0.13457E-01  2240   0.148E+00    0.954E-01
RMM:   3    -0.152907258102E+03    0.64769E-02   -0.26297E-02  2309   0.627E-01    0.310E-01
RMM:   4    -0.152906917828E+03    0.34027E-03   -0.40417E-03  2277   0.224E-01    0.303E-01
RMM:   5    -0.152906346667E+03    0.57116E-03   -0.25900E-03  2152   0.190E-01    0.198E-01
RMM:   6    -0.152906233442E+03    0.11323E-03   -0.14464E-03  2128   0.152E-01    0.146E-01
RMM:   7    -0.152906028208E+03    0.20523E-03   -0.52712E-04  1900   0.976E-02    0.741E-02
RMM:   8    -0.152905985492E+03    0.42716E-04   -0.89083E-05  1250   0.418E-02
  18 F= -.15290599E+03 E0= -.15291627E+03  d E =-.134151E+00  mag=     0.0000
 curvature:  -7.60 expect dE=-0.236E+00 dE for cont linesearch -0.194E-06
 trial: gam= 0.42954 g(F)=  0.310E-01 g(S)=  0.000E+00 ort =-0.615E-04 (trialstep = 0.416E+01)
 search vector abs. value=  0.583E-01
 bond charge predicted
       N       E                     dE             d eps       ncg     rms          rms(c)
DAV:   1    -0.152950941450E+03   -0.44913E-01   -0.56577E+01  2240   0.195E+01    0.907E-01
RMM:   2    -0.153005669820E+03   -0.54728E-01   -0.61808E-01  2240   0.308E+00    0.114E+00
RMM:   3    -0.153006028913E+03   -0.35909E-03   -0.92038E-02  2396   0.106E+00    0.819E-01
RMM:   4    -0.152999599499E+03    0.64294E-02   -0.15820E-02  2282   0.431E-01    0.467E-01
RMM:   5    -0.152999440270E+03    0.15923E-03   -0.10279E-02  2242   0.386E-01    0.503E-01
RMM:   6    -0.152998416633E+03    0.10236E-02   -0.68839E-03  2240   0.324E-01    0.362E-01
RMM:   7    -0.152997315409E+03    0.11012E-02   -0.29112E-03  2184   0.218E-01    0.185E-01
RMM:   8    -0.152997079892E+03    0.23552E-03   -0.73923E-04  1982   0.109E-01    0.807E-02
RMM:   9    -0.152997018597E+03    0.61295E-04   -0.95547E-05  1264   0.455E-02
  19 F= -.15299702E+03 E0= -.15300593E+03  d E =-.910331E-01  mag=     0.0000
 trial-energy change:   -0.091033  1 .order   -0.091632   -0.128986   -0.054278
 step:   7.4767(harm=  7.1907)  dis= 0.05818  next Energy=  -153.018299 (dE=-0.112E+00)
 bond charge predicted
       N       E                     dE             d eps       ncg     rms          rms(c)
DAV:   1    -0.152989233876E+03    0.78460E-02   -0.35740E+01  2256   0.155E+01    0.731E-01
RMM:   2    -0.153025049710E+03   -0.35816E-01   -0.38544E-01  2240   0.243E+00    0.102E+00
RMM:   3    -0.153023019971E+03    0.20297E-02   -0.59655E-02  2384   0.868E-01    0.625E-01
RMM:   4    -0.153019333850E+03    0.36861E-02   -0.89730E-03  2284   0.318E-01    0.374E-01
RMM:   5    -0.153019435278E+03   -0.10143E-03   -0.66708E-03  2240   0.309E-01    0.418E-01
RMM:   6    -0.153018074972E+03    0.13603E-02   -0.31075E-03  2230   0.219E-01    0.160E-01
RMM:   7    -0.153017886717E+03    0.18826E-03   -0.95095E-04  1972   0.122E-01    0.105E-01
RMM:   8    -0.153017847311E+03    0.39406E-04   -0.32539E-04  1736   0.753E-02
  20 F= -.15301785E+03 E0= -.15302521E+03  d E =-.111862E+00  mag=     0.0000
 curvature:  -6.71 expect dE=-0.210E+00 dE for cont linesearch -0.119E-04
 trial: gam= 1.05035 g(F)=  0.312E-01 g(S)=  0.000E+00 ort =-0.322E-03 (trialstep = 0.297E+01)
 search vector abs. value=  0.949E-01
 bond charge predicted
       N       E                     dE             d eps       ncg     rms          rms(c)
DAV:   1    -0.153048963355E+03   -0.31077E-01   -0.35020E+01  2256   0.153E+01    0.758E-01
RMM:   2    -0.153094496301E+03   -0.45533E-01   -0.50507E-01  2240   0.267E+00    0.947E-01
RMM:   3    -0.153097172288E+03   -0.26760E-02   -0.78407E-02  2422   0.957E-01    0.759E-01
RMM:   4    -0.153091768555E+03    0.54037E-02   -0.10958E-02  2318   0.356E-01    0.360E-01
RMM:   5    -0.153091973235E+03   -0.20468E-03   -0.64324E-03  2240   0.300E-01    0.442E-01
RMM:   6    -0.153090683719E+03    0.12895E-02   -0.44840E-03  2240   0.249E-01    0.245E-01
RMM:   7    -0.153090275986E+03    0.40773E-03   -0.17369E-03  2128   0.167E-01    0.148E-01
RMM:   8    -0.153090142118E+03    0.13387E-03   -0.46993E-04  1860   0.872E-02    0.728E-02
RMM:   9    -0.153090089472E+03    0.52646E-04   -0.10966E-04  1258   0.497E-02
  21 F= -.15309009E+03 E0= -.15309682E+03  d E =-.722422E-01  mag=     0.0000
 trial-energy change:   -0.072242  1 .order   -0.072349   -0.091686   -0.053012
 step:   7.0320(harm=  7.0320)  dis= 0.08468  next Energy=  -153.126530 (dE=-0.109E+00)
 bond charge predicted
       N       E                     dE             d eps       ncg     rms          rms(c)
DAV:   1    -0.153048127293E+03    0.42015E-01   -0.65961E+01  2248   0.211E+01    0.105E+00
RMM:   2    -0.153138218465E+03   -0.90091E-01   -0.97436E-01  2240   0.372E+00    0.147E+00
RMM:   3    -0.153139038409E+03   -0.81994E-03   -0.15090E-01  2434   0.133E+00    0.100E+00
RMM:   4    -0.153130384122E+03    0.86543E-02   -0.20779E-02  2320   0.487E-01    0.565E-01
RMM:   5    -0.153129641755E+03    0.74237E-03   -0.12148E-02  2242   0.415E-01    0.544E-01
RMM:   6    -0.153127140015E+03    0.25017E-02   -0.71820E-03  2240   0.300E-01    0.230E-01
RMM:   7    -0.153126833471E+03    0.30654E-03   -0.23192E-03  2190   0.191E-01    0.162E-01
RMM:   8    -0.153126684576E+03    0.14889E-03   -0.67418E-04  1906   0.103E-01    0.986E-02
RMM:   9    -0.153126564973E+03    0.11960E-03   -0.19256E-04  1310   0.640E-02    0.386E-02
RMM:  10    -0.153126568677E+03   -0.37041E-05   -0.94844E-05  1258   0.389E-02
  22 F= -.15312657E+03 E0= -.15313325E+03  d E =-.108721E+00  mag=    -0.0000
 curvature: -10.80 expect dE=-0.422E+00 dE for cont linesearch -0.106E-04
 trial: gam= 1.22370 g(F)=  0.391E-01 g(S)=  0.000E+00 ort =-0.305E-03 (trialstep = 0.199E+01)
 search vector abs. value=  0.180E+00
 bond charge predicted
       N       E                     dE             d eps       ncg     rms          rms(c)
DAV:   1    -0.153148653301E+03   -0.22088E-01   -0.20624E+01  2256   0.117E+01    0.668E-01
RMM:   2    -0.153193200207E+03   -0.44547E-01   -0.48664E-01  2240   0.256E+00    0.865E-01
RMM:   3    -0.153196390787E+03   -0.31906E-02   -0.74575E-02  2470   0.906E-01    0.684E-01
RMM:   4    -0.153192212152E+03    0.41786E-02   -0.98715E-03  2332   0.350E-01    0.335E-01
RMM:   5    -0.153192028465E+03    0.18369E-03   -0.48292E-03  2214   0.256E-01    0.369E-01
RMM:   6    -0.153191155443E+03    0.87302E-03   -0.43423E-03  2240   0.232E-01    0.223E-01
RMM:   7    -0.153190769538E+03    0.38591E-03   -0.17314E-03  2200   0.164E-01    0.121E-01
RMM:   8    -0.153190685551E+03    0.83987E-04   -0.36081E-04  1698   0.750E-02
  23 F= -.15319069E+03 E0= -.15319708E+03  d E =-.641169E-01  mag=     0.0000
 trial-energy change:   -0.064117  1 .order   -0.064175   -0.076909   -0.051441
 step:   6.0032(harm=  6.0032)  dis= 0.10411  next Energy=  -153.242693 (dE=-0.116E+00)
 bond charge predicted
       N       E                     dE             d eps       ncg     rms          rms(c)
DAV:   1    -0.153060795209E+03    0.12997E+00   -0.84385E+01  2240   0.239E+01    0.138E+00
RMM:   2    -0.153252870019E+03   -0.19207E+00   -0.20678E+00  2240   0.531E+00    0.198E+00
RMM:   3    -0.153257393211E+03   -0.45232E-02   -0.31919E-01  2462   0.188E+00    0.130E+00
RMM:   4    -0.153242623735E+03    0.14769E-01   -0.39729E-02  2338   0.689E-01    0.715E-01
RMM:   5    -0.153241385955E+03    0.12378E-02   -0.19701E-02  2250   0.515E-01    0.729E-01
RMM:   6    -0.153236739963E+03    0.46460E-02   -0.16351E-02  2240   0.415E-01    0.314E-01
RMM:   7    -0.153236358365E+03    0.38160E-03   -0.43048E-03  2240   0.257E-01    0.243E-01
RMM:   8    -0.153235976093E+03    0.38227E-03   -0.11848E-03  2100   0.138E-01    0.136E-01
RMM:   9    -0.153235745734E+03    0.23036E-03   -0.38617E-04  1828   0.836E-02    0.819E-02
RMM:  10    -0.153235682605E+03    0.63129E-04   -0.19351E-04  1312   0.562E-02
  24 F= -.15323568E+03 E0= -.15324214E+03  d E =-.109114E+00  mag=    -0.0000
 curvature: -14.00 expect dE=-0.448E+00 dE for cont linesearch -0.102E-02
 trial: gam= 0.83113 g(F)=  0.320E-01 g(S)=  0.000E+00 ort =-0.362E-02 (trialstep = 0.279E+01)
 search vector abs. value=  0.151E+00
 bond charge predicted
       N       E                     dE             d eps       ncg     rms          rms(c)
DAV:   1    -0.153232775654E+03    0.29701E-02   -0.33016E+01  2256   0.149E+01    0.864E-01
RMM:   2    -0.153301970479E+03   -0.69195E-01   -0.75056E-01  2240   0.309E+00    0.100E+00
RMM:   3    -0.153309045033E+03   -0.70746E-02   -0.11820E-01  2450   0.118E+00    0.101E+00
RMM:   4    -0.153300473270E+03    0.85718E-02   -0.17270E-02  2334   0.484E-01    0.408E-01
RMM:   5    -0.153300450318E+03    0.22953E-04   -0.75672E-03  2242   0.326E-01    0.471E-01
RMM:   6    -0.153298537277E+03    0.19130E-02   -0.60246E-03  2240   0.252E-01    0.192E-01
RMM:   7    -0.153298388150E+03    0.14913E-03   -0.12856E-03  2128   0.138E-01    0.131E-01
RMM:   8    -0.153298223277E+03    0.16487E-03   -0.18879E-04  1374   0.597E-02    0.556E-02
RMM:   9    -0.153298202607E+03    0.20669E-04   -0.91146E-05  1274   0.419E-02
  25 F= -.15329820E+03 E0= -.15330415E+03  d E =-.625200E-01  mag=    -0.0000
 trial-energy change:   -0.062520  1 .order   -0.061326   -0.080944   -0.041708
 step:   5.0240(harm=  5.7579)  dis= 0.07295  next Energy=  -153.315499 (dE=-0.798E-01)
 bond charge predicted
       N       E                     dE             d eps       ncg     rms          rms(c)
DAV:   1    -0.153274534113E+03    0.23689E-01   -0.21102E+01  2280   0.119E+01    0.682E-01
RMM:   2    -0.153317527786E+03   -0.42994E-01   -0.47779E-01  2240   0.247E+00    0.687E-01
RMM:   3    -0.153324360397E+03   -0.68326E-02   -0.74983E-02  2454   0.933E-01    0.852E-01
RMM:   4    -0.153318002364E+03    0.63580E-02   -0.11506E-02  2346   0.404E-01    0.287E-01
RMM:   5    -0.153318421045E+03   -0.41868E-03   -0.49446E-03  2236   0.259E-01    0.422E-01
RMM:   6    -0.153316942883E+03    0.14782E-02   -0.41648E-03  2240   0.219E-01    0.136E-01
RMM:   7    -0.153316854858E+03    0.88025E-04   -0.89173E-04  2112   0.118E-01
  26 F= -.15331685E+03 E0= -.15332141E+03  d E =-.811723E-01  mag=     0.0000
 curvature: -14.04 expect dE=-0.399E+00 dE for cont linesearch -0.517E-03
 trial: gam= 0.56876 g(F)=  0.284E-01 g(S)=  0.000E+00 ort = 0.236E-02 (trialstep = 0.324E+01)
 search vector abs. value=  0.798E-01
 bond charge predicted
       N       E                     dE             d eps       ncg     rms          rms(c)
DAV:   1    -0.153349014742E+03   -0.32072E-01   -0.28117E+01  2240   0.137E+01    0.716E-01
RMM:   2    -0.153397572980E+03   -0.48558E-01   -0.52562E-01  2240   0.260E+00    0.869E-01
RMM:   3    -0.153402199054E+03   -0.46261E-02   -0.82261E-02  2468   0.981E-01    0.856E-01
RMM:   4    -0.153396266898E+03    0.59322E-02   -0.11457E-02  2342   0.388E-01    0.334E-01
RMM:   5    -0.153396208878E+03    0.58021E-04   -0.52148E-03  2238   0.275E-01    0.382E-01
RMM:   6    -0.153395588267E+03    0.62061E-03   -0.46581E-03  2240   0.252E-01    0.288E-01
RMM:   7    -0.153394902313E+03    0.68595E-03   -0.23422E-03  2220   0.191E-01    0.131E-01
RMM:   8    -0.153394800289E+03    0.10202E-03   -0.47172E-04  1874   0.865E-02    0.741E-02
RMM:   9    -0.153394748261E+03    0.52028E-04   -0.10531E-04  1265   0.480E-02
  27 F= -.15339475E+03 E0= -.15339786E+03  d E =-.778934E-01  mag=     0.0000
 trial-energy change:   -0.077893  1 .order   -0.078736   -0.096401   -0.061072
 step:   8.8342(harm=  8.8342)  dis= 0.08724  next Energy=  -153.448376 (dE=-0.132E+00)
 bond charge predicted
       N       E                     dE             d eps       ncg     rms          rms(c)
DAV:   1    -0.153305738666E+03    0.89062E-01   -0.84530E+01  2240   0.239E+01    0.127E+00
RMM:   2    -0.153474398680E+03   -0.16866E+00   -0.16738E+00  2240   0.469E+00    0.214E+00
RMM:   3    -0.153463817419E+03    0.10581E-01   -0.26046E-01  2452   0.177E+00    0.121E+00
RMM:   4    -0.153453370407E+03    0.10447E-01   -0.30952E-02  2344   0.599E-01    0.751E-01
RMM:   5    -0.153450847144E+03    0.25233E-02   -0.15090E-02  2242   0.464E-01    0.591E-01
RMM:   6    -0.153450239758E+03    0.60739E-03   -0.13454E-02  2240   0.390E-01    0.629E-01
RMM:   7    -0.153447259400E+03    0.29804E-02   -0.49670E-03  2240   0.278E-01    0.132E-01
RMM:   8    -0.153447399502E+03   -0.14010E-03   -0.10550E-03  2034   0.121E-01    0.201E-01
RMM:   9    -0.153447043623E+03    0.35588E-03   -0.51824E-04  1870   0.970E-02    0.513E-02
RMM:  10    -0.153447016053E+03    0.27570E-04   -0.16769E-04  1286   0.503E-02
  28 F= -.15344702E+03 E0= -.15344740E+03  d E =-.130161E+00  mag=     0.0000
 curvature: -11.84 expect dE=-0.660E+00 dE for cont linesearch -0.803E-04
 trial: gam= 1.96579 g(F)=  0.557E-01 g(S)=  0.000E+00 ort =-0.736E-03 (trialstep = 0.963E+00)
 search vector abs. value=  0.361E+00
 bond charge predicted
       N       E                     dE             d eps       ncg     rms          rms(c)
DAV:   1    -0.153478369794E+03   -0.31326E-01   -0.11660E+01  2304   0.880E+00    0.446E-01
RMM:   2    -0.153497746903E+03   -0.19377E-01   -0.20141E-01  2242   0.162E+00    0.652E-01
RMM:   3    -0.153497803960E+03   -0.57058E-04   -0.31686E-02  2456   0.606E-01    0.449E-01
RMM:   4    -0.153496236987E+03    0.15670E-02   -0.39483E-03  2342   0.220E-01    0.243E-01
RMM:   5    -0.153496096711E+03    0.14028E-03   -0.20704E-03  2134   0.171E-01    0.238E-01
RMM:   6    -0.153495933881E+03    0.16283E-03   -0.17306E-03  2224   0.144E-01    0.219E-01
RMM:   7    -0.153495577111E+03    0.35677E-03   -0.70488E-04  1992   0.106E-01    0.652E-02
RMM:   8    -0.153495562565E+03    0.14546E-04   -0.15188E-04  1262   0.534E-02
  29 F= -.15349556E+03 E0= -.15349488E+03  d E =-.485465E-01  mag=     0.0000
 ZBRENT: can't locate minimum, use default step
 trial-energy change:   -0.048547  1 .order   -0.048460   -0.052238   -0.044682
 step:   3.8507(harm=  6.6559)  dis= 0.07784  next Energy=  -153.627598 (dE=-0.181E+00)
 bond charge predicted
       N       E                     dE             d eps       ncg     rms          rms(c)
DAV:   1    -0.153424817520E+03    0.70760E-01   -0.10598E+02  2240   0.269E+01    0.143E+00
RMM:   2    -0.153630696285E+03   -0.20588E+00   -0.19758E+00  2240   0.519E+00    0.274E+00
RMM:   3    -0.153598479598E+03    0.32217E-01   -0.31956E-01  2430   0.198E+00    0.117E+00
RMM:   4    -0.153591112155E+03    0.73674E-02   -0.42046E-02  2342   0.715E-01    0.954E-01
RMM:   5    -0.153585561114E+03    0.55510E-02   -0.20576E-02  2246   0.545E-01    0.612E-01
RMM:   6    -0.153586580628E+03   -0.10195E-02   -0.16140E-02  2240   0.441E-01    0.774E-01
RMM:   7    -0.153581969129E+03    0.46115E-02   -0.81801E-03  2240   0.358E-01    0.221E-01
RMM:   8    -0.153581754525E+03    0.21460E-03   -0.18858E-03  2128   0.170E-01    0.172E-01
RMM:   9    -0.153581597909E+03    0.15662E-03   -0.69436E-04  1910   0.105E-01    0.130E-01
RMM:  10    -0.153581429211E+03    0.16870E-03   -0.26448E-04  1508   0.721E-02    0.361E-02
RMM:  11    -0.153581448526E+03   -0.19314E-04   -0.13413E-04  1270   0.426E-02
  30 F= -.15358145E+03 E0= -.15357800E+03  d E =-.134432E+00  mag=     0.0000
 curvature: -16.78 expect dE=-0.648E+00 dE for cont linesearch -0.450E-02
 ZBRENT: extrapolating
 opt :   4.6281  next Energy=  -153.585274 (dE=-0.138E+00)
 bond charge predicted
       N       E                     dE             d eps       ncg     rms          rms(c)
DAV:   1    -0.153573402665E+03    0.80265E-02   -0.76243E+00  2336   0.713E+00    0.366E-01
RMM:   2    -0.153585998093E+03   -0.12595E-01   -0.13343E-01  2240   0.132E+00    0.501E-01
RMM:   3    -0.153586481489E+03   -0.48340E-03   -0.21164E-02  2450   0.497E-01    0.396E-01
RMM:   4    -0.153585212412E+03    0.12691E-02   -0.29060E-03  2328   0.195E-01    0.183E-01
RMM:   5    -0.153585174666E+03    0.37746E-04   -0.15460E-03  2118   0.149E-01    0.208E-01
RMM:   6    -0.153585033663E+03    0.14100E-03   -0.13577E-03  2166   0.140E-01    0.170E-01
RMM:   7    -0.153584832779E+03    0.20088E-03   -0.69558E-04  2022   0.106E-01    0.979E-02
RMM:   8    -0.153584765589E+03    0.67189E-04   -0.15844E-04  1272   0.551E-02
  31 F= -.15358477E+03 E0= -.15358066E+03  d E =-.137750E+00  mag=    -0.0000
 curvature: -14.27 expect dE=-0.651E+00 dE for cont linesearch -0.119E-03
 trial: gam= 0.43582 g(F)=  0.456E-01 g(S)=  0.000E+00 ort =-0.174E-02 (trialstep = 0.170E+01)
 search vector abs. value=  0.113E+00
 bond charge predicted
       N       E                     dE             d eps       ncg     rms          rms(c)
DAV:   1    -0.153630751865E+03   -0.45919E-01   -0.11015E+01  2272   0.858E+00    0.477E-01
RMM:   2    -0.153651353682E+03   -0.20602E-01   -0.22206E-01  2240   0.178E+00    0.655E-01
RMM:   3    -0.153651986385E+03   -0.63270E-03   -0.34611E-02  2454   0.631E-01    0.466E-01
RMM:   4    -0.153650097403E+03    0.18890E-02   -0.43040E-03  2338   0.228E-01    0.218E-01
RMM:   5    -0.153650204531E+03   -0.10713E-03   -0.21571E-03  2138   0.173E-01    0.278E-01
RMM:   6    -0.153649907912E+03    0.29662E-03   -0.19463E-03  2234   0.167E-01    0.218E-01
RMM:   7    -0.153649582758E+03    0.32515E-03   -0.99451E-04  2112   0.127E-01    0.117E-01
RMM:   8    -0.153649472591E+03    0.11017E-03   -0.27762E-04  1546   0.704E-02    0.363E-02
RMM:   9    -0.153649459469E+03    0.13123E-04   -0.48456E-05  1246   0.336E-02
  32 F= -.15364946E+03 E0= -.15364482E+03  d E =-.646939E-01  mag=    -0.0000
 trial-energy change:   -0.064694  1 .order   -0.064910   -0.076044   -0.053776
 step:   5.7908(harm=  5.7908)  dis= 0.09136  next Energy=  -153.714605 (dE=-0.130E+00)
 bond charge predicted
       N       E                     dE             d eps       ncg     rms          rms(c)
DAV:   1    -0.153598520449E+03    0.50952E-01   -0.64690E+01  2240   0.209E+01    0.119E+00
RMM:   2    -0.153737032377E+03   -0.13851E+00   -0.14298E+00  2240   0.470E+00    0.200E+00
RMM:   3    -0.153723663577E+03    0.13369E-01   -0.21823E-01  2442   0.161E+00    0.886E-01
RMM:   4    -0.153717649603E+03    0.60140E-02   -0.27979E-02  2336   0.582E-01    0.617E-01
RMM:   5    -0.153716197675E+03    0.14519E-02   -0.13880E-02  2244   0.447E-01    0.575E-01
RMM:   6    -0.153715296459E+03    0.90122E-03   -0.12816E-02  2240   0.445E-01    0.475E-01
RMM:   7    -0.153713060001E+03    0.22365E-02   -0.61777E-03  2240   0.316E-01    0.175E-01
RMM:   8    -0.153712951725E+03    0.10828E-03   -0.12147E-03  2114   0.136E-01    0.132E-01
RMM:   9    -0.153712764921E+03    0.18680E-03   -0.22267E-04  1440   0.652E-02    0.464E-02
RMM:  10    -0.153712760871E+03    0.40495E-05   -0.11535E-04  1272   0.454E-02
  33 F= -.15371276E+03 E0= -.15370663E+03  d E =-.127995E+00  mag=    -0.0000
 curvature:  -7.28 expect dE=-0.253E+00 dE for cont linesearch -0.161E-03
 trial: gam= 0.65411 g(F)=  0.347E-01 g(S)=  0.000E+00 ort =-0.158E-02 (trialstep = 0.251E+01)
 search vector abs. value=  0.809E-01
 bond charge predicted
       N       E                     dE             d eps       ncg     rms          rms(c)
DAV:   1    -0.153748652118E+03   -0.35887E-01   -0.17491E+01  2272   0.108E+01    0.598E-01
RMM:   2    -0.153784686240E+03   -0.36034E-01   -0.36919E-01  2240   0.232E+00    0.937E-01
RMM:   3    -0.153783569737E+03    0.11165E-02   -0.56405E-02  2442   0.816E-01    0.540E-01
RMM:   4    -0.153781361609E+03    0.22081E-02   -0.70492E-03  2336   0.292E-01    0.369E-01
RMM:   5    -0.153780768925E+03    0.59268E-03   -0.35086E-03  2184   0.225E-01    0.301E-01
RMM:   6    -0.153781025649E+03   -0.25672E-03   -0.32011E-03  2240   0.202E-01    0.381E-01
RMM:   7    -0.153779840503E+03    0.11851E-02   -0.16466E-03  2134   0.162E-01    0.556E-02
RMM:   8    -0.153779876755E+03   -0.36253E-04   -0.26370E-04  1526   0.646E-02
  34 F= -.15377988E+03 E0= -.15377226E+03  d E =-.671159E-01  mag=     0.0000
 trial-energy change:   -0.067116  1 .order   -0.067230   -0.084780   -0.049680
 step:   6.0741(harm=  6.0741)  dis= 0.09664  next Energy=  -153.815149 (dE=-0.102E+00)
 bond charge predicted
       N       E                     dE             d eps       ncg     rms          rms(c)
DAV:   1    -0.153749809747E+03    0.30031E-01   -0.35100E+01  2240   0.154E+01    0.858E-01
RMM:   2    -0.153823438021E+03   -0.73628E-01   -0.75170E-01  2240   0.332E+00    0.137E+00
RMM:   3    -0.153820463902E+03    0.29741E-02   -0.11471E-01  2450   0.116E+00    0.770E-01
RMM:   4    -0.153817156996E+03    0.33069E-02   -0.15515E-02  2334   0.443E-01    0.632E-01
RMM:   5    -0.153814632908E+03    0.25241E-02   -0.72992E-03  2240   0.328E-01    0.392E-01
RMM:   6    -0.153815845454E+03   -0.12125E-02   -0.72726E-03  2240   0.312E-01    0.579E-01
RMM:   7    -0.153813142817E+03    0.27026E-02   -0.43526E-03  2240   0.262E-01    0.139E-01
RMM:   8    -0.153812999415E+03    0.14340E-03   -0.87005E-04  2036   0.118E-01    0.972E-02
RMM:   9    -0.153812982669E+03    0.16745E-04   -0.31484E-04  1630   0.738E-02
  35 F= -.15381298E+03 E0= -.15380336E+03  d E =-.100222E+00  mag=    -0.0000
 curvature:  -7.29 expect dE=-0.277E+00 dE for cont linesearch -0.885E-04
 trial: gam= 1.05760 g(F)=  0.380E-01 g(S)=  0.000E+00 ort =-0.991E-03 (trialstep = 0.206E+01)
 search vector abs. value=  0.126E+00
 bond charge predicted
       N       E                     dE             d eps       ncg     rms          rms(c)
DAV:   1    -0.153846921951E+03   -0.33923E-01   -0.21278E+01  2256   0.119E+01    0.643E-01
RMM:   2    -0.153882455120E+03   -0.35533E-01   -0.36507E-01  2240   0.225E+00    0.101E+00
RMM:   3    -0.153880206864E+03    0.22483E-02   -0.60438E-02  2436   0.857E-01    0.581E-01
RMM:   4    -0.153877243694E+03    0.29632E-02   -0.70823E-03  2320   0.290E-01    0.325E-01
RMM:   5    -0.153877289589E+03   -0.45894E-04   -0.42031E-03  2190   0.242E-01    0.364E-01
RMM:   6    -0.153876904962E+03    0.38463E-03   -0.29402E-03  2240   0.190E-01    0.334E-01
RMM:   7    -0.153876017379E+03    0.88758E-03   -0.11740E-03  2090   0.133E-01    0.574E-02
RMM:   8    -0.153876025057E+03   -0.76782E-05   -0.21881E-04  1356   0.603E-02
  36 F= -.15387603E+03 E0= -.15386557E+03  d E =-.630424E-01  mag=    -0.0000
 trial-energy change:   -0.063042  1 .order   -0.063159   -0.076356   -0.049963
 step:   5.9738(harm=  5.9738)  dis= 0.11036  next Energy=  -153.923430 (dE=-0.110E+00)
 bond charge predicted
       N       E                     dE             d eps       ncg     rms          rms(c)
DAV:   1    -0.153809708169E+03    0.66309E-01   -0.76685E+01  2240   0.228E+01    0.120E+00
RMM:   2    -0.153936848129E+03   -0.12714E+00   -0.13301E+00  2240   0.424E+00    0.179E+00
RMM:   3    -0.153933391445E+03    0.34567E-02   -0.21314E-01  2444   0.159E+00    0.113E+00
RMM:   4    -0.153921322350E+03    0.12069E-01   -0.24758E-02  2320   0.547E-01    0.532E-01
RMM:   5    -0.153923405360E+03   -0.20830E-02   -0.16472E-02  2240   0.475E-01    0.780E-01
RMM:   6    -0.153919318412E+03    0.40869E-02   -0.10267E-02  2240   0.359E-01    0.456E-01
RMM:   7    -0.153917716556E+03    0.16019E-02   -0.27462E-03  2206   0.202E-01    0.118E-01
RMM:   8    -0.153917667810E+03    0.48747E-04   -0.62725E-04  1950   0.928E-02
  37 F= -.15391767E+03 E0= -.15390743E+03  d E =-.104685E+00  mag=    -0.0000
 curvature: -10.21 expect dE=-0.419E+00 dE for cont linesearch -0.979E-03
 trial: gam= 0.97411 g(F)=  0.410E-01 g(S)=  0.000E+00 ort =-0.348E-02 (trialstep = 0.233E+01)
 search vector abs. value=  0.154E+00
 bond charge predicted
       N       E                     dE             d eps       ncg     rms          rms(c)
DAV:   1    -0.153958998036E+03   -0.41281E-01   -0.44472E+01  2256   0.173E+01    0.853E-01
RMM:   2    -0.154004689360E+03   -0.45691E-01   -0.47318E-01  2240   0.267E+00    0.131E+00
RMM:   3    -0.153998494689E+03    0.61947E-02   -0.81753E-02  2406   0.102E+00    0.746E-01
RMM:   4    -0.153995185708E+03    0.33090E-02   -0.13768E-02  2302   0.422E-01    0.536E-01
RMM:   5    -0.153994144188E+03    0.10415E-02   -0.79603E-03  2240   0.341E-01    0.471E-01
RMM:   6    -0.153993688929E+03    0.45526E-03   -0.59407E-03  2234   0.301E-01    0.380E-01
RMM:   7    -0.153992707125E+03    0.98180E-03   -0.31419E-03  2194   0.227E-01    0.244E-01
RMM:   8    -0.153992148320E+03    0.55880E-03   -0.10490E-03  2022   0.133E-01    0.465E-02
RMM:   9    -0.153992156936E+03   -0.86152E-05   -0.11908E-04  1278   0.454E-02
  38 F= -.15399216E+03 E0= -.15398443E+03  d E =-.744891E-01  mag=    -0.0000
 trial-energy change:   -0.074489  1 .order   -0.074782   -0.087810   -0.061755
 step:   7.8662(harm=  7.8662)  dis= 0.12643  next Energy=  -154.065634 (dE=-0.148E+00)
 bond charge predicted
       N       E                     dE             d eps       ncg     rms          rms(c)
DAV:   1    -0.153824076361E+03    0.16807E+00   -0.25572E+02  2240   0.426E+01    0.197E+00
RMM:   2    -0.154110675767E+03   -0.28660E+00   -0.30535E+00  2240   0.668E+00    0.292E+00
RMM:   3    -0.154087454540E+03    0.23221E-01   -0.45537E-01  2428   0.237E+00    0.176E+00
RMM:   4    -0.154064781642E+03    0.22673E-01   -0.71715E-02  2306   0.949E-01    0.112E+00
RMM:   5    -0.154062740360E+03    0.20413E-02   -0.44887E-02  2240   0.810E-01    0.116E+00
RMM:   6    -0.154057680727E+03    0.50596E-02   -0.33953E-02  2242   0.720E-01    0.795E-01
RMM:   7    -0.154052192956E+03    0.54878E-02   -0.15733E-02  2240   0.514E-01    0.454E-01
RMM:   8    -0.154050613634E+03    0.15793E-02   -0.42582E-03  2204   0.260E-01    0.174E-01
RMM:   9    -0.154050426991E+03    0.18664E-03   -0.64780E-04  1920   0.100E-01    0.118E-01
RMM:  10    -0.154050328936E+03    0.98055E-04   -0.31960E-04  1650   0.753E-02
  39 F= -.15405033E+03 E0= -.15404792E+03  d E =-.132661E+00  mag=     0.0000
 curvature: -16.12 expect dE=-0.803E+00 dE for cont linesearch -0.505E-02
 trial: gam= 0.88762 g(F)=  0.498E-01 g(S)=  0.000E+00 ort =-0.695E-02 (trialstep = 0.334E+01)
 search vector abs. value=  0.159E+00
 bond charge predicted
       N       E                     dE             d eps       ncg     rms          rms(c)
DAV:   1    -0.154071594626E+03   -0.21168E-01   -0.92835E+01  2248   0.252E+01    0.120E+00
RMM:   2    -0.154174310844E+03   -0.10272E+00   -0.10870E+00  2240   0.397E+00    0.172E+00
RMM:   3    -0.154168100545E+03    0.62103E-02   -0.17247E-01  2414   0.147E+00    0.112E+00
RMM:   4    -0.154159781388E+03    0.83192E-02   -0.32701E-02  2300   0.672E-01    0.652E-01
RMM:   5    -0.154157756602E+03    0.20248E-02   -0.15963E-02  2240   0.497E-01    0.569E-01
RMM:   6    -0.154157843662E+03   -0.87060E-04   -0.12102E-02  2240   0.422E-01    0.563E-01
RMM:   7    -0.154155353713E+03    0.24899E-02   -0.58855E-03  2240   0.309E-01    0.287E-01
RMM:   8    -0.154154651807E+03    0.70191E-03   -0.14415E-03  2082   0.150E-01    0.664E-02
RMM:   9    -0.154154621488E+03    0.30320E-04   -0.14751E-04  1308   0.480E-02
  40 F= -.15415462E+03 E0= -.15415468E+03  d E =-.104293E+00  mag=     0.0000
 trial-energy change:   -0.104293  1 .order   -0.103254   -0.145682   -0.060825
 step:   5.4720(harm=  5.7291)  dis= 0.08577  next Energy=  -154.174350 (dE=-0.124E+00)
 bond charge predicted
       N       E                     dE             d eps       ncg     rms          rms(c)
DAV:   1    -0.154141291628E+03    0.13360E-01   -0.37743E+01  2256   0.159E+01    0.777E-01
RMM:   2    -0.154184252635E+03   -0.42961E-01   -0.43130E-01  2240   0.253E+00    0.123E+00
RMM:   3    -0.154178924731E+03    0.53279E-02   -0.71928E-02  2400   0.962E-01    0.661E-01
RMM:   4    -0.154176075869E+03    0.28489E-02   -0.12050E-02  2302   0.401E-01    0.420E-01
RMM:   5    -0.154175470378E+03    0.60549E-03   -0.67503E-03  2230   0.320E-01    0.383E-01
RMM:   6    -0.154175288235E+03    0.18214E-03   -0.51076E-03  2234   0.275E-01    0.338E-01
RMM:   7    -0.154174419898E+03    0.86834E-03   -0.23513E-03  2172   0.198E-01    0.191E-01
RMM:   8    -0.154174101181E+03    0.31872E-03   -0.56398E-04  1880   0.959E-02    0.364E-02
RMM:   9    -0.154174096788E+03    0.43933E-05   -0.67051E-05  1264   0.330E-02
  41 F= -.15417410E+03 E0= -.15417623E+03  d E =-.123768E+00  mag=     0.0000
 curvature: -10.31 expect dE=-0.402E+00 dE for cont linesearch -0.207E-05
 trial: gam= 0.43811 g(F)=  0.390E-01 g(S)=  0.000E+00 ort =-0.179E-03 (trialstep = 0.376E+01)
 search vector abs. value=  0.694E-01
 bond charge predicted
       N       E                     dE             d eps       ncg     rms          rms(c)
DAV:   1    -0.154228288496E+03   -0.54187E-01   -0.47452E+01  2240   0.179E+01    0.980E-01
RMM:   2    -0.154313507206E+03   -0.85219E-01   -0.74090E-01  2240   0.333E+00    0.204E+00
RMM:   3    -0.154286320614E+03    0.27187E-01   -0.13246E-01  2386   0.134E+00    0.672E-01
RMM:   4    -0.154284176920E+03    0.21437E-02   -0.19395E-02  2312   0.498E-01    0.560E-01
RMM:   5    -0.154282416329E+03    0.17606E-02   -0.91691E-03  2240   0.369E-01    0.463E-01
RMM:   6    -0.154282001159E+03    0.41517E-03   -0.80874E-03  2240   0.352E-01    0.399E-01
RMM:   7    -0.154281041431E+03    0.95973E-03   -0.41365E-03  2240   0.250E-01    0.286E-01
RMM:   8    -0.154280331004E+03    0.71043E-03   -0.10804E-03  2046   0.133E-01    0.408E-02
RMM:   9    -0.154280322756E+03    0.82479E-05   -0.13919E-04  1274   0.468E-02
  42 F= -.15428032E+03 E0= -.15428437E+03  d E =-.106226E+00  mag=     0.0000
 trial-energy change:   -0.106226  1 .order   -0.106345   -0.146622   -0.066068
 step:   6.8513(harm=  6.8513)  dis= 0.05335  next Energy=  -154.307535 (dE=-0.133E+00)
 bond charge predicted
       N       E                     dE             d eps       ncg     rms          rms(c)
DAV:   1    -0.154272764835E+03    0.75662E-02   -0.31862E+01  2272   0.146E+01    0.805E-01
RMM:   2    -0.154330088722E+03   -0.57324E-01   -0.49401E-01  2240   0.271E+00    0.169E+00
RMM:   3    -0.154311507267E+03    0.18581E-01   -0.88913E-02  2378   0.110E+00    0.540E-01
RMM:   4    -0.154310027604E+03    0.14797E-02   -0.12072E-02  2314   0.387E-01    0.444E-01
RMM:   5    -0.154309057238E+03    0.97037E-03   -0.61958E-03  2238   0.302E-01    0.377E-01
RMM:   6    -0.154308846710E+03    0.21053E-03   -0.55312E-03  2240   0.291E-01    0.330E-01
RMM:   7    -0.154308093767E+03    0.75294E-03   -0.27220E-03  2216   0.207E-01    0.216E-01
RMM:   8    -0.154307684825E+03    0.40894E-03   -0.63443E-04  1930   0.103E-01    0.343E-02
RMM:   9    -0.154307681383E+03    0.34421E-05   -0.91443E-05  1262   0.388E-02
  43 F= -.15430768E+03 E0= -.15431262E+03  d E =-.133585E+00  mag=    -0.0000
 curvature:  -6.10 expect dE=-0.252E+00 dE for cont linesearch -0.123E-05
 trial: gam= 1.00317 g(F)=  0.413E-01 g(S)=  0.000E+00 ort = 0.118E-03 (trialstep = 0.273E+01)
 search vector abs. value=  0.111E+00
 bond charge predicted
       N       E                     dE             d eps       ncg     rms          rms(c)
DAV:   1    -0.154352238683E+03   -0.44554E-01   -0.36617E+01  2240   0.157E+01    0.873E-01
RMM:   2    -0.154414468494E+03   -0.62230E-01   -0.58174E-01  2240   0.291E+00    0.158E+00
RMM:   3    -0.154401369394E+03    0.13099E-01   -0.10349E-01  2402   0.118E+00    0.696E-01
RMM:   4    -0.154397879334E+03    0.34901E-02   -0.13014E-02  2326   0.399E-01    0.445E-01
RMM:   5    -0.154397369094E+03    0.51024E-03   -0.71561E-03  2240   0.321E-01    0.423E-01
RMM:   6    -0.154396717860E+03    0.65123E-03   -0.58477E-03  2240   0.288E-01    0.322E-01
RMM:   7    -0.154395860591E+03    0.85727E-03   -0.26962E-03  2200   0.209E-01    0.178E-01
RMM:   8    -0.154395595617E+03    0.26497E-03   -0.56572E-04  1910   0.959E-02    0.503E-02
RMM:   9    -0.154395590201E+03    0.54157E-05   -0.11157E-04  1274   0.452E-02
  44 F= -.15439559E+03 E0= -.15440041E+03  d E =-.879088E-01  mag=     0.0000
 trial-energy change:   -0.087909  1 .order   -0.087422   -0.113065   -0.061778
 step:   5.6704(harm=  6.0186)  dis= 0.06217  next Energy=  -154.429467 (dE=-0.122E+00)
 bond charge predicted
       N       E                     dE             d eps       ncg     rms          rms(c)
DAV:   1    -0.154378466833E+03    0.17129E-01   -0.42532E+01  2240   0.170E+01    0.937E-01
RMM:   2    -0.154449809745E+03   -0.71343E-01   -0.67841E-01  2240   0.314E+00    0.164E+00
RMM:   3    -0.154436615426E+03    0.13194E-01   -0.11916E-01  2406   0.126E+00    0.769E-01
RMM:   4    -0.154432155369E+03    0.44601E-02   -0.14583E-02  2328   0.421E-01    0.464E-01
RMM:   5    -0.154431887022E+03    0.26835E-03   -0.81013E-03  2240   0.341E-01    0.479E-01
RMM:   6    -0.154431005895E+03    0.88113E-03   -0.68033E-03  2240   0.310E-01    0.360E-01
RMM:   7    -0.154429985421E+03    0.10205E-02   -0.32035E-03  2208   0.225E-01    0.199E-01
RMM:   8    -0.154429651803E+03    0.33362E-03   -0.72242E-04  1958   0.109E-01    0.552E-02
RMM:   9    -0.154429647200E+03    0.46031E-05   -0.13903E-04  1300   0.503E-02
  45 F= -.15442965E+03 E0= -.15443300E+03  d E =-.121966E+00  mag=     0.0000
 curvature:  -8.00 expect dE=-0.193E+00 dE for cont linesearch -0.523E-06
 trial: gam= 0.48230 g(F)=  0.241E-01 g(S)=  0.000E+00 ort =-0.853E-04 (trialstep = 0.332E+01)
 search vector abs. value=  0.499E-01
 bond charge predicted
       N       E                     dE             d eps       ncg     rms          rms(c)
DAV:   1    -0.154464784062E+03   -0.35132E-01   -0.27525E+01  2256   0.136E+01    0.721E-01
RMM:   2    -0.154504193931E+03   -0.39410E-01   -0.37275E-01  2240   0.241E+00    0.132E+00
RMM:   3    -0.154494650452E+03    0.95435E-02   -0.63443E-02  2398   0.918E-01    0.527E-01
RMM:   4    -0.154492763711E+03    0.18867E-02   -0.87726E-03  2304   0.323E-01    0.406E-01
RMM:   5    -0.154492268414E+03    0.49530E-03   -0.57147E-03  2228   0.282E-01    0.359E-01
RMM:   6    -0.154491649946E+03    0.61847E-03   -0.37268E-03  2240   0.237E-01    0.239E-01
RMM:   7    -0.154491145575E+03    0.50437E-03   -0.15870E-03  2120   0.162E-01    0.126E-01
RMM:   8    -0.154491022305E+03    0.12327E-03   -0.32154E-04  1678   0.744E-02    0.470E-02
RMM:   9    -0.154491014349E+03    0.79553E-05   -0.76044E-05  1252   0.384E-02
  46 F= -.15449101E+03 E0= -.15449376E+03  d E =-.613671E-01  mag=     0.0000
 trial-energy change:   -0.061367  1 .order   -0.061289   -0.079899   -0.042680
 step:   7.1231(harm=  7.1231)  dis= 0.05895  next Energy=  -154.515407 (dE=-0.858E-01)
 bond charge predicted
       N       E                     dE             d eps       ncg     rms          rms(c)
DAV:   1    -0.154480292589E+03    0.10730E-01   -0.36240E+01  2240   0.156E+01    0.830E-01
RMM:   2    -0.154532331290E+03   -0.52039E-01   -0.49300E-01  2240   0.276E+00    0.152E+00
RMM:   3    -0.154519771183E+03    0.12560E-01   -0.83820E-02  2398   0.106E+00    0.611E-01
RMM:   4    -0.154517381438E+03    0.23897E-02   -0.11913E-02  2308   0.376E-01    0.487E-01
RMM:   5    -0.154516519786E+03    0.86165E-03   -0.77536E-03  2240   0.329E-01    0.408E-01
RMM:   6    -0.154515756613E+03    0.76317E-03   -0.49569E-03  2240   0.273E-01    0.272E-01
RMM:   7    -0.154515084264E+03    0.67235E-03   -0.20798E-03  2142   0.186E-01    0.142E-01
RMM:   8    -0.154514930431E+03    0.15383E-03   -0.43226E-04  1838   0.842E-02    0.553E-02
RMM:   9    -0.154514912828E+03    0.17602E-04   -0.94664E-05  1262   0.427E-02
  47 F= -.15451491E+03 E0= -.15451663E+03  d E =-.852656E-01  mag=     0.0000
 curvature:  -7.39 expect dE=-0.138E+00 dE for cont linesearch -0.223E-04
 trial: gam= 0.69427 g(F)=  0.186E-01 g(S)=  0.000E+00 ort =-0.388E-03 (trialstep = 0.408E+01)
 search vector abs. value=  0.422E-01
 bond charge predicted
       N       E                     dE             d eps       ncg     rms          rms(c)
DAV:   1    -0.154532848182E+03   -0.17918E-01   -0.37851E+01  2256   0.160E+01    0.823E-01
RMM:   2    -0.154577749015E+03   -0.44901E-01   -0.45325E-01  2240   0.270E+00    0.140E+00
RMM:   3    -0.154568582279E+03    0.91667E-02   -0.76049E-02  2406   0.998E-01    0.638E-01
RMM:   4    -0.154566696541E+03    0.18857E-02   -0.12765E-02  2292   0.383E-01    0.584E-01
RMM:   5    -0.154564813666E+03    0.18829E-02   -0.81471E-03  2240   0.341E-01    0.388E-01
RMM:   6    -0.154564540033E+03    0.27363E-03   -0.50522E-03  2240   0.273E-01    0.330E-01
RMM:   7    -0.154563736828E+03    0.80320E-03   -0.24730E-03  2144   0.198E-01    0.201E-01
RMM:   8    -0.154563384485E+03    0.35234E-03   -0.71047E-04  1960   0.110E-01    0.538E-02
RMM:   9    -0.154563387139E+03   -0.26539E-05   -0.13908E-04  1274   0.513E-02
  48 F= -.15456339E+03 E0= -.15456436E+03  d E =-.484743E-01  mag=    -0.0000
 trial-energy change:   -0.048474  1 .order   -0.048740   -0.074888   -0.022592
 step:   5.8413(harm=  5.8413)  dis= 0.04565  next Energy=  -154.568533 (dE=-0.536E-01)
 bond charge predicted
       N       E                     dE             d eps       ncg     rms          rms(c)
DAV:   1    -0.154562676824E+03    0.70766E-03   -0.70411E+00  2304   0.685E+00    0.352E-01
RMM:   2    -0.154570337701E+03   -0.76609E-02   -0.79741E-02  2240   0.112E+00    0.552E-01
RMM:   3    -0.154569269692E+03    0.10680E-02   -0.13677E-02  2400   0.421E-01    0.297E-01
RMM:   4    -0.154568841902E+03    0.42779E-03   -0.20861E-03  2266   0.153E-01    0.253E-01
RMM:   5    -0.154568452389E+03    0.38951E-03   -0.13283E-03  2038   0.139E-01    0.155E-01
RMM:   6    -0.154568337683E+03    0.11471E-03   -0.56778E-04  2002   0.896E-02    0.120E-01
RMM:   7    -0.154568225412E+03    0.11227E-03   -0.23409E-04  1426   0.659E-02    0.369E-02
RMM:   8    -0.154568220378E+03    0.50338E-05   -0.43716E-05  1234   0.302E-02
  49 F= -.15456822E+03 E0= -.15456878E+03  d E =-.533075E-01  mag=    -0.0000
 curvature:  -6.71 expect dE=-0.782E-01 dE for cont linesearch -0.196E-05
 trial: gam= 0.57677 g(F)=  0.117E-01 g(S)=  0.000E+00 ort = 0.111E-03 (trialstep = 0.443E+01)
 search vector abs. value=  0.258E-01
 bond charge predicted
       N       E                     dE             d eps       ncg     rms          rms(c)
DAV:   1    -0.154576257688E+03   -0.80323E-02   -0.25017E+01  2240   0.130E+01    0.671E-01
RMM:   2    -0.154611652012E+03   -0.35394E-01   -0.34843E-01  2240   0.231E+00    0.118E+00
RMM:   3    -0.154605174859E+03    0.64772E-02   -0.58871E-02  2426   0.868E-01    0.526E-01
RMM:   4    -0.154603379731E+03    0.17951E-02   -0.85204E-03  2306   0.322E-01    0.410E-01
RMM:   5    -0.154602588077E+03    0.79165E-03   -0.47972E-03  2206   0.264E-01    0.336E-01
RMM:   6    -0.154602478902E+03    0.10918E-03   -0.40047E-03  2240   0.241E-01    0.317E-01
RMM:   7    -0.154601820259E+03    0.65864E-03   -0.22571E-03  2152   0.186E-01    0.200E-01
RMM:   8    -0.154601467133E+03    0.35313E-03   -0.63000E-04  1954   0.105E-01    0.379E-02
RMM:   9    -0.154601468571E+03   -0.14382E-05   -0.10094E-04  1264   0.421E-02
  50 F= -.15460147E+03 E0= -.15460109E+03  d E =-.332482E-01  mag=    -0.0000
 trial-energy change:   -0.033248  1 .order   -0.033529   -0.051976   -0.015083
 step:   6.2433(harm=  6.2433)  dis= 0.03199  next Energy=  -154.604833 (dE=-0.366E-01)
 bond charge predicted
       N       E                     dE             d eps       ncg     rms          rms(c)
DAV:   1    -0.154600313680E+03    0.11535E-02   -0.41749E+00  2288   0.529E+00    0.275E-01
RMM:   2    -0.154606147919E+03   -0.58342E-02   -0.57136E-02  2240   0.931E-01    0.476E-01
RMM:   3    -0.154605154123E+03    0.99380E-03   -0.98440E-03  2430   0.355E-01    0.220E-01
RMM:   4    -0.154604851124E+03    0.30300E-03   -0.12601E-03  2226   0.121E-01    0.174E-01
RMM:   5    -0.154604687174E+03    0.16395E-03   -0.72615E-04  1938   0.104E-01    0.127E-01
RMM:   6    -0.154604708845E+03   -0.21671E-04   -0.60578E-04  2006   0.913E-02
  51 F= -.15460471E+03 E0= -.15460394E+03  d E =-.364885E-01  mag=    -0.0000
 curvature:  -6.87 expect dE=-0.546E-01 dE for cont linesearch -0.193E-04
 trial: gam= 0.68000 g(F)=  0.794E-02 g(S)=  0.000E+00 ort = 0.269E-03 (trialstep = 0.479E+01)
 search vector abs. value=  0.202E-01
 bond charge predicted
       N       E                     dE             d eps       ncg     rms          rms(c)
DAV:   1    -0.154607034388E+03   -0.23472E-02   -0.20988E+01  2240   0.119E+01    0.663E-01
RMM:   2    -0.154648389888E+03   -0.41355E-01   -0.33190E-01  2240   0.225E+00    0.150E+00
RMM:   3    -0.154633259914E+03    0.15130E-01   -0.59860E-02  2410   0.902E-01    0.456E-01
RMM:   4    -0.154633772526E+03   -0.51261E-03   -0.10962E-02  2328   0.369E-01    0.598E-01
RMM:   5    -0.154630982743E+03    0.27898E-02   -0.51692E-03  2214   0.279E-01    0.243E-01
RMM:   6    -0.154631451572E+03   -0.46883E-03   -0.37982E-03  2234   0.236E-01    0.344E-01
RMM:   7    -0.154630633523E+03    0.81805E-03   -0.23530E-03  2156   0.190E-01    0.179E-01
RMM:   8    -0.154630326941E+03    0.30658E-03   -0.67327E-04  1958   0.109E-01    0.410E-02
RMM:   9    -0.154630347299E+03   -0.20358E-04   -0.13016E-04  1260   0.485E-02
  52 F= -.15463035E+03 E0= -.15462877E+03  d E =-.256385E-01  mag=    -0.0000
 trial-energy change:   -0.025638  1 .order   -0.026221   -0.038956   -0.013485
 step:   8.0971(harm=  7.3320)  dis= 0.04529  next Energy=  -154.634803 (dE=-0.301E-01)
 bond charge predicted
       N       E                     dE             d eps       ncg     rms          rms(c)
DAV:   1    -0.154622249114E+03    0.80778E-02   -0.99540E+00  2256   0.816E+00    0.461E-01
RMM:   2    -0.154642935337E+03   -0.20686E-01   -0.15961E-01  2240   0.157E+00    0.108E+00
RMM:   3    -0.154634715352E+03    0.82200E-02   -0.29196E-02  2406   0.634E-01    0.307E-01
RMM:   4    -0.154635036661E+03   -0.32131E-03   -0.53155E-03  2326   0.257E-01    0.417E-01
RMM:   5    -0.154633675773E+03    0.13609E-02   -0.24820E-03  2140   0.193E-01    0.168E-01
RMM:   6    -0.154633897281E+03   -0.22151E-03   -0.17966E-03  2144   0.163E-01    0.239E-01
RMM:   7    -0.154633528331E+03    0.36895E-03   -0.11430E-03  2080   0.133E-01    0.132E-01
RMM:   8    -0.154633363882E+03    0.16445E-03   -0.33872E-04  1680   0.796E-02    0.282E-02
RMM:   9    -0.154633375125E+03   -0.11243E-04   -0.69384E-05  1236   0.359E-02
  53 F= -.15463338E+03 E0= -.15463130E+03  d E =-.286663E-01  mag=    -0.0000
 curvature:  -8.30 expect dE=-0.700E-01 dE for cont linesearch -0.293E-03
 trial: gam= 1.15885 g(F)=  0.843E-02 g(S)=  0.000E+00 ort =-0.845E-03 (trialstep = 0.328E+01)
 search vector abs. value=  0.337E-01
 bond charge predicted
       N       E                     dE             d eps       ncg     rms          rms(c)
DAV:   1    -0.154633121116E+03    0.24277E-03   -0.17344E+01  2256   0.108E+01    0.612E-01
RMM:   2    -0.154670016446E+03   -0.36895E-01   -0.26483E-01  2240   0.204E+00    0.154E+00
RMM:   3    -0.154652085770E+03    0.17931E-01   -0.49553E-02  2374   0.844E-01    0.388E-01
RMM:   4    -0.154653365578E+03   -0.12798E-02   -0.10514E-02  2312   0.369E-01    0.588E-01
RMM:   5    -0.154650586203E+03    0.27794E-02   -0.46916E-03  2214   0.266E-01    0.227E-01
RMM:   6    -0.154650831162E+03   -0.24496E-03   -0.28990E-03  2190   0.209E-01    0.295E-01
RMM:   7    -0.154650420286E+03    0.41088E-03   -0.20281E-03  2142   0.175E-01    0.203E-01
RMM:   8    -0.154650029672E+03    0.39061E-03   -0.72894E-04  1958   0.115E-01    0.395E-02
RMM:   9    -0.154650039570E+03   -0.98986E-05   -0.11019E-04  1262   0.441E-02
  54 F= -.15465004E+03 E0= -.15464755E+03  d E =-.166644E-01  mag=    -0.0000
 trial-energy change:   -0.016664  1 .order   -0.016805   -0.024444   -0.009167
 step:   5.2494(harm=  5.2494)  dis= 0.04158  next Energy=  -154.652930 (dE=-0.196E-01)
 bond charge predicted
       N       E                     dE             d eps       ncg     rms          rms(c)
DAV:   1    -0.154646387900E+03    0.36418E-02   -0.62386E+00  2272   0.645E+00    0.366E-01
RMM:   2    -0.154659698531E+03   -0.13311E-01   -0.95133E-02  2240   0.122E+00    0.926E-01
RMM:   3    -0.154653298788E+03    0.63997E-02   -0.17819E-02  2374   0.505E-01    0.227E-01
RMM:   4    -0.154653786367E+03   -0.48758E-03   -0.36276E-03  2274   0.214E-01    0.356E-01
RMM:   5    -0.154652747845E+03    0.10385E-02   -0.16461E-03  2110   0.158E-01    0.124E-01
RMM:   6    -0.154652955135E+03   -0.20729E-03   -0.10926E-03  2080   0.127E-01    0.206E-01
RMM:   7    -0.154652669664E+03    0.28547E-03   -0.69296E-04  1928   0.106E-01    0.962E-02
RMM:   8    -0.154652579030E+03    0.90634E-04   -0.19602E-04  1268   0.642E-02
  55 F= -.15465258E+03 E0= -.15464995E+03  d E =-.192039E-01  mag=     0.0000
 curvature: -11.86 expect dE=-0.664E-01 dE for cont linesearch -0.172E-07
 trial: gam= 0.40625 g(F)=  0.560E-02 g(S)=  0.000E+00 ort = 0.699E-05 (trialstep = 0.367E+01)
 search vector abs. value=  0.112E-01
 bond charge predicted
       N       E                     dE             d eps       ncg     rms          rms(c)
DAV:   1    -0.154662953308E+03   -0.10284E-01   -0.81926E+00  2272   0.737E+00    0.392E-01
RMM:   2    -0.154673528537E+03   -0.10575E-01   -0.94176E-02  2240   0.127E+00    0.777E-01
RMM:   3    -0.154669711703E+03    0.38168E-02   -0.16797E-02  2386   0.483E-01    0.270E-01
RMM:   4    -0.154669837780E+03   -0.12608E-03   -0.38420E-03  2264   0.230E-01    0.318E-01
RMM:   5    -0.154669227001E+03    0.61078E-03   -0.20605E-03  2126   0.176E-01    0.218E-01
RMM:   6    -0.154668948461E+03    0.27854E-03   -0.12610E-03  2076   0.143E-01    0.131E-01
RMM:   7    -0.154669022866E+03   -0.74404E-04   -0.72231E-04  1940   0.105E-01
  56 F= -.15466902E+03 E0= -.15466615E+03  d E =-.164438E-01  mag=     0.0000
 trial-energy change:   -0.016444  1 .order   -0.016468   -0.020589   -0.012347
 step:   9.1792(harm=  9.1792)  dis= 0.03627  next Energy=  -154.678295 (dE=-0.257E-01)
 bond charge predicted
       N       E                     dE             d eps       ncg     rms          rms(c)
DAV:   1    -0.154663463764E+03    0.54847E-02   -0.18403E+01  2240   0.111E+01    0.583E-01
RMM:   2    -0.154686648891E+03   -0.23185E-01   -0.21242E-01  2240   0.190E+00    0.111E+00
RMM:   3    -0.154678993430E+03    0.76555E-02   -0.37071E-02  2390   0.711E-01    0.411E-01
RMM:   4    -0.154679212418E+03   -0.21899E-03   -0.86010E-03  2296   0.345E-01    0.466E-01
RMM:   5    -0.154677859584E+03    0.13528E-02   -0.45682E-03  2200   0.261E-01    0.319E-01
RMM:   6    -0.154677318612E+03    0.54097E-03   -0.28157E-03  2164   0.211E-01    0.207E-01
RMM:   7    -0.154677536135E+03   -0.21752E-03   -0.17206E-03  2126   0.158E-01    0.272E-01
RMM:   8    -0.154676912402E+03    0.62373E-03   -0.79139E-04  1956   0.119E-01    0.387E-02
RMM:   9    -0.154676918314E+03   -0.59121E-05   -0.94817E-05  1254   0.398E-02
  57 F= -.15467692E+03 E0= -.15467384E+03  d E =-.243393E-01  mag=     0.0000
 curvature:  -9.14 expect dE=-0.429E-01 dE for cont linesearch -0.591E-04
 trial: gam= 0.87017 g(F)=  0.469E-02 g(S)=  0.000E+00 ort =-0.269E-03 (trialstep = 0.421E+01)
 search vector abs. value=  0.127E-01
 bond charge predicted
       N       E                     dE             d eps       ncg     rms          rms(c)
DAV:   1    -0.154679559309E+03   -0.26469E-02   -0.11209E+01  2240   0.864E+00    0.485E-01
RMM:   2    -0.154696302877E+03   -0.16744E-01   -0.14745E-01  2240   0.155E+00    0.958E-01
RMM:   3    -0.154690524777E+03    0.57781E-02   -0.26455E-02  2374   0.606E-01    0.359E-01
RMM:   4    -0.154690271310E+03    0.25347E-03   -0.62003E-03  2292   0.295E-01    0.341E-01
RMM:   5    -0.154689586050E+03    0.68526E-03   -0.30621E-03  2192   0.211E-01    0.269E-01
RMM:   6    -0.154689169277E+03    0.41677E-03   -0.19344E-03  2128   0.177E-01    0.165E-01
RMM:   7    -0.154689316197E+03   -0.14692E-03   -0.99256E-04  2032   0.120E-01    0.224E-01
RMM:   8    -0.154688913630E+03    0.40257E-03   -0.50147E-04  1864   0.959E-02    0.356E-02
RMM:   9    -0.154688920292E+03   -0.66617E-05   -0.76561E-05  1240   0.358E-02
  58 F= -.15468892E+03 E0= -.15468615E+03  d E =-.120020E-01  mag=     0.0000
 trial-energy change:   -0.012002  1 .order   -0.012032   -0.018743   -0.005321
 step:   5.8728(harm=  5.8728)  dis= 0.02329  next Energy=  -154.690005 (dE=-0.131E-01)
 bond charge predicted
       N       E                     dE             d eps       ncg     rms          rms(c)
DAV:   1    -0.154688389505E+03    0.52413E-03   -0.17607E+00  2304   0.342E+00    0.191E-01
RMM:   2    -0.154690947444E+03   -0.25579E-02   -0.22524E-02  2240   0.601E-01    0.371E-01
RMM:   3    -0.154690123162E+03    0.82428E-03   -0.40222E-03  2384   0.235E-01    0.139E-01
RMM:   4    -0.154690081537E+03    0.41624E-04   -0.84614E-04  2028   0.109E-01
  59 F= -.15469008E+03 E0= -.15468740E+03  d E =-.131632E-01  mag=     0.0000
 curvature:  -8.35 expect dE=-0.146E-01 dE for cont linesearch -0.227E-06
 trial: gam= 0.30374 g(F)=  0.175E-02 g(S)=  0.000E+00 ort =-0.186E-04 (trialstep = 0.454E+01)
 search vector abs. value=  0.291E-02
 bond charge predicted
       N       E                     dE             d eps       ncg     rms          rms(c)
DAV:   1    -0.154691838865E+03   -0.17157E-02   -0.27633E+00  2240   0.432E+00    0.270E-01
RMM:   2    -0.154699175658E+03   -0.73368E-02   -0.49532E-02  2240   0.891E-01    0.736E-01
RMM:   3    -0.154695359839E+03    0.38158E-02   -0.92932E-03  2354   0.366E-01    0.159E-01
RMM:   4    -0.154695254965E+03    0.10487E-03   -0.16917E-03  2236   0.151E-01    0.168E-01
RMM:   5    -0.154695091687E+03    0.16328E-03   -0.84932E-04  1972   0.114E-01    0.139E-01
RMM:   6    -0.154695030068E+03    0.61619E-04   -0.62971E-04  1946   0.102E-01
  60 F= -.15469503E+03 E0= -.15469247E+03  d E =-.494853E-02  mag=     0.0000
 trial-energy change:   -0.004949  1 .order   -0.005251   -0.007928   -0.002574
 step:   6.7207(harm=  6.7207)  dis= 0.01155  next Energy=  -154.695951 (dE=-0.587E-02)
 bond charge predicted
       N       E                     dE             d eps       ncg     rms          rms(c)
DAV:   1    -0.154694665745E+03    0.42594E-03   -0.63640E-01  2288   0.208E+00    0.163E-01
RMM:   2    -0.154697860464E+03   -0.31947E-02   -0.13856E-02  2240   0.464E-01    0.558E-01
RMM:   3    -0.154695425388E+03    0.24351E-02   -0.38499E-03  2262   0.253E-01    0.110E-01
RMM:   4    -0.154695451491E+03   -0.26103E-04   -0.62920E-04  1930   0.917E-02
  61 F= -.15469545E+03 E0= -.15469291E+03  d E =-.536995E-02  mag=     0.0000
 curvature:  -5.60 expect dE=-0.108E-01 dE for cont linesearch -0.337E-04
 trial: gam= 1.16180 g(F)=  0.192E-02 g(S)=  0.000E+00 ort =-0.132E-03 (trialstep = 0.261E+01)
 search vector abs. value=  0.554E-02
 bond charge predicted
       N       E                     dE             d eps       ncg     rms          rms(c)
DAV:   1    -0.154697589846E+03   -0.21645E-02   -0.19019E+00  2240   0.356E+00    0.201E-01
RMM:   2    -0.154700448452E+03   -0.28586E-02   -0.23253E-02  2240   0.598E-01    0.426E-01
RMM:   3    -0.154699271171E+03    0.11773E-02   -0.42649E-03  2364   0.239E-01    0.135E-01
RMM:   4    -0.154699359994E+03   -0.88823E-04   -0.98796E-04  2090   0.113E-01
  62 F= -.15469936E+03 E0= -.15469682E+03  d E =-.390850E-02  mag=     0.0000
 trial-energy change:   -0.003909  1 .order   -0.003783   -0.004620   -0.002947
 step:   7.2129(harm=  7.2129)  dis= 0.01769  next Energy=  -154.701830 (dE=-0.638E-02)
 bond charge predicted
       N       E                     dE             d eps       ncg     rms          rms(c)
DAV:   1    -0.154696611392E+03    0.26598E-02   -0.58989E+00  2240   0.626E+00    0.352E-01
RMM:   2    -0.154705786936E+03   -0.91755E-02   -0.71786E-02  2240   0.105E+00    0.769E-01
RMM:   3    -0.154701878064E+03    0.39089E-02   -0.13071E-02  2364   0.419E-01    0.240E-01
RMM:   4    -0.154702109002E+03   -0.23094E-03   -0.32370E-03  2262   0.207E-01    0.336E-01
RMM:   5    -0.154701253610E+03    0.85539E-03   -0.16826E-03  2116   0.161E-01    0.139E-01
RMM:   6    -0.154701482729E+03   -0.22912E-03   -0.11710E-03  2054   0.131E-01    0.223E-01
RMM:   7    -0.154701132901E+03    0.34983E-03   -0.66623E-04  1902   0.107E-01    0.818E-02
RMM:   8    -0.154701064927E+03    0.67974E-04   -0.15197E-04  1252   0.572E-02
  63 F= -.15470106E+03 E0= -.15469864E+03  d E =-.561344E-02  mag=     0.0000
 curvature: -11.30 expect dE=-0.211E-01 dE for cont linesearch -0.558E-04
 trial: gam= 0.82874 g(F)=  0.186E-02 g(S)=  0.000E+00 ort =-0.165E-03 (trialstep = 0.353E+01)
 search vector abs. value=  0.540E-02
 bond charge predicted
       N       E                     dE             d eps       ncg     rms          rms(c)
DAV:   1    -0.154702625110E+03   -0.14922E-02   -0.30956E+00  2240   0.452E+00    0.251E-01
RMM:   2    -0.154708191054E+03   -0.55659E-02   -0.46331E-02  2240   0.827E-01    0.553E-01
RMM:   3    -0.154706217402E+03    0.19737E-02   -0.80312E-03  2384   0.326E-01    0.170E-01
RMM:   4    -0.154706337942E+03   -0.12054E-03   -0.16485E-03  2202   0.148E-01    0.235E-01
RMM:   5    -0.154705909041E+03    0.42890E-03   -0.78557E-04  1948   0.112E-01    0.103E-01
RMM:   6    -0.154705943139E+03   -0.34098E-04   -0.57878E-04  1938   0.963E-02
  64 F= -.15470594E+03 E0= -.15470364E+03  d E =-.487821E-02  mag=     0.0000
 trial-energy change:   -0.004878  1 .order   -0.004989   -0.006096   -0.003882
 step:   9.7269(harm=  9.7269)  dis= 0.02010  next Energy=  -154.709458 (dE=-0.839E-02)
 bond charge predicted
       N       E                     dE             d eps       ncg     rms          rms(c)
DAV:   1    -0.154698864673E+03    0.70444E-02   -0.95207E+00  2240   0.795E+00    0.447E-01
RMM:   2    -0.154716344018E+03   -0.17479E-01   -0.14170E-01  2240   0.144E+00    0.101E+00
RMM:   3    -0.154709668699E+03    0.66753E-02   -0.24939E-02  2352   0.580E-01    0.305E-01
RMM:   4    -0.154710715707E+03   -0.10470E-02   -0.58127E-03  2292   0.279E-01    0.501E-01
RMM:   5    -0.154708611329E+03    0.21044E-02   -0.26404E-03  2164   0.204E-01    0.132E-01
RMM:   6    -0.154708964866E+03   -0.35354E-03   -0.16959E-03  2170   0.150E-01    0.256E-01
RMM:   7    -0.154708450057E+03    0.51481E-03   -0.86731E-04  1950   0.119E-01    0.748E-02
RMM:   8    -0.154708400816E+03    0.49241E-04   -0.16406E-04  1260   0.567E-02
  65 F= -.15470840E+03 E0= -.15470625E+03  d E =-.733589E-02  mag=     0.0000
 curvature: -15.21 expect dE=-0.487E-01 dE for cont linesearch -0.474E-04
 trial: gam= 1.70839 g(F)=  0.320E-02 g(S)=  0.000E+00 ort =-0.130E-03 (trialstep = 0.139E+01)
 search vector abs. value=  0.185E-01
 bond charge predicted
       N       E                     dE             d eps       ncg     rms          rms(c)
[...]
RMM:   8    -0.154876386438E+03    0.30898E-03   -0.42690E-04  1820   0.911E-02    0.256E-02
RMM:   9    -0.154876393550E+03   -0.71121E-05   -0.56367E-05  1226   0.298E-02
  81 F= -.15487639E+03 E0= -.15488058E+03  d E =-.251773E-01  mag=     0.0000
 ZBRENT: can't locate minimum, use default step
 trial-energy change:   -0.025177  1 .order   -0.025541   -0.029038   -0.022044
 step:   9.0927(harm=  9.4378)  dis= 0.06510  next Energy=  -154.911496 (dE=-0.603E-01)
 bond charge predicted
       N       E                     dE             d eps       ncg     rms          rms(c)
DAV:   1    -0.154842655709E+03    0.33731E-01   -0.10531E+02  2240   0.264E+01    0.155E+00
RMM:   2    -0.155043238152E+03   -0.20058E+00   -0.14894E+00  2240   0.526E+00    0.380E+00
RMM:   3    -0.154923448112E+03    0.11979E+00   -0.25096E-01  2274   0.196E+00    0.948E-01
RMM:   4    -0.154929078130E+03   -0.56300E-02   -0.65296E-02  2276   0.938E-01    0.137E+00
RMM:   5    -0.154916476688E+03    0.12601E-01   -0.31866E-02  2240   0.695E-01    0.752E-01
RMM:   6    -0.154913468571E+03    0.30081E-02   -0.19864E-02  2242   0.564E-01    0.557E-01
RMM:   7    -0.154913976144E+03   -0.50757E-03   -0.12176E-02  2240   0.426E-01    0.612E-01
RMM:   8    -0.154910613007E+03    0.33631E-02   -0.48528E-03  2206   0.293E-01    0.117E-01
RMM:   9    -0.154910630314E+03   -0.17307E-04   -0.79536E-04  1908   0.104E-01
  82 F= -.15491063E+03 E0= -.15491389E+03  d E =-.594140E-01  mag=     0.0000
 curvature: -13.05 expect dE=-0.151E+00 dE for cont linesearch -0.343E-06
 trial: gam= 0.76347 g(F)=  0.116E-01 g(S)=  0.000E+00 ort = 0.305E-04 (trialstep = 0.364E+01)
 search vector abs. value=  0.323E-01
 bond charge predicted
       N       E                     dE             d eps       ncg     rms          rms(c)
DAV:   1    -0.154923767090E+03   -0.13154E-01   -0.26283E+01  2256   0.128E+01    0.760E-01
RMM:   2    -0.154963813708E+03   -0.40047E-01   -0.33095E-01  2240   0.239E+00    0.163E+00
RMM:   3    -0.154943790362E+03    0.20023E-01   -0.57600E-02  2310   0.912E-01    0.452E-01
RMM:   4    -0.154944546540E+03   -0.75618E-03   -0.12146E-02  2280   0.396E-01    0.618E-01
RMM:   5    -0.154941941321E+03    0.26052E-02   -0.73967E-03  2222   0.335E-01    0.365E-01
RMM:   6    -0.154941587111E+03    0.35421E-03   -0.47449E-03  2224   0.270E-01    0.306E-01
RMM:   7    -0.154941332836E+03    0.25428E-03   -0.26203E-03  2142   0.200E-01    0.277E-01
RMM:   8    -0.154940652170E+03    0.68067E-03   -0.10349E-03  1988   0.134E-01    0.465E-02
RMM:   9    -0.154940657010E+03   -0.48395E-05   -0.12541E-04  1270   0.456E-02
  83 F= -.15494066E+03 E0= -.15494361E+03  d E =-.300267E-01  mag=    -0.0000
 trial-energy change:   -0.030027  1 .order   -0.030065   -0.042265   -0.017864
 step:   6.2998(harm=  6.2998)  dis= 0.05001  next Energy=  -154.947234 (dE=-0.366E-01)
 bond charge predicted
       N       E                     dE             d eps       ncg     rms          rms(c)
DAV:   1    -0.154938113395E+03    0.25388E-02   -0.14048E+01  2256   0.937E+00    0.539E-01
RMM:   2    -0.154956832476E+03   -0.18719E-01   -0.16205E-01  2240   0.166E+00    0.110E+00
RMM:   3    -0.154948478050E+03    0.83544E-02   -0.28012E-02  2338   0.627E-01    0.328E-01
RMM:   4    -0.154948343516E+03    0.13453E-03   -0.53733E-03  2274   0.262E-01    0.381E-01
RMM:   5    -0.154947508244E+03    0.83527E-03   -0.36659E-03  2186   0.233E-01    0.278E-01
RMM:   6    -0.154947279189E+03    0.22906E-03   -0.24283E-03  2156   0.193E-01    0.216E-01
RMM:   7    -0.154947088371E+03    0.19082E-03   -0.11639E-03  2026   0.137E-01    0.184E-01
RMM:   8    -0.154946796655E+03    0.29172E-03   -0.43462E-04  1776   0.881E-02    0.315E-02
RMM:   9    -0.154946796305E+03    0.34953E-06   -0.51825E-05  1238   0.303E-02
  84 F= -.15494680E+03 E0= -.15494970E+03  d E =-.361660E-01  mag=    -0.0000
 curvature:  -8.75 expect dE=-0.755E-01 dE for cont linesearch -0.244E-04
 trial: gam= 0.68753 g(F)=  0.863E-02 g(S)=  0.000E+00 ort =-0.300E-03 (trialstep = 0.417E+01)
 search vector abs. value=  0.235E-01
 bond charge predicted
       N       E                     dE             d eps       ncg     rms          rms(c)
DAV:   1    -0.154953985139E+03   -0.71885E-02   -0.26254E+01  2240   0.128E+01    0.730E-01
RMM:   2    -0.154989434043E+03   -0.35449E-01   -0.31452E-01  2240   0.239E+00    0.149E+00
RMM:   3    -0.154973039990E+03    0.16394E-01   -0.51426E-02  2338   0.848E-01    0.418E-01
RMM:   4    -0.154972491928E+03    0.54806E-03   -0.96299E-03  2282   0.352E-01    0.470E-01
RMM:   5    -0.154971390702E+03    0.11012E-02   -0.68549E-03  2222   0.319E-01    0.383E-01
RMM:   6    -0.154970935876E+03    0.45483E-03   -0.47592E-03  2190   0.266E-01    0.289E-01
RMM:   7    -0.154970495418E+03    0.44046E-03   -0.17230E-03  2112   0.170E-01    0.220E-01
RMM:   8    -0.154970075495E+03    0.41992E-03   -0.61118E-04  1906   0.102E-01    0.470E-02
RMM:   9    -0.154970079571E+03   -0.40766E-05   -0.10484E-04  1256   0.423E-02
  85 F= -.15497008E+03 E0= -.15497269E+03  d E =-.232833E-01  mag=    -0.0000
 trial-energy change:   -0.023283  1 .order   -0.023224   -0.035115   -0.011334
 step:   6.1568(harm=  6.1568)  dis= 0.04980  next Energy=  -154.972721 (dE=-0.259E-01)
 bond charge predicted
       N       E                     dE             d eps       ncg     rms          rms(c)
DAV:   1    -0.154969422456E+03    0.65304E-03   -0.59207E+00  2272   0.604E+00    0.332E-01
RMM:   2    -0.154975731720E+03   -0.63093E-02   -0.60016E-02  2240   0.103E+00    0.609E-01
RMM:   3    -0.154973457116E+03    0.22746E-02   -0.98206E-03  2382   0.361E-01    0.209E-01
RMM:   4    -0.154973216485E+03    0.24063E-03   -0.17680E-03  2224   0.148E-01    0.206E-01
RMM:   5    -0.154973075824E+03    0.14066E-03   -0.14779E-03  2086   0.148E-01    0.188E-01
RMM:   6    -0.154972948540E+03    0.12728E-03   -0.98598E-04  2008   0.124E-01    0.131E-01
RMM:   7    -0.154972838286E+03    0.11025E-03   -0.35037E-04  1772   0.821E-02    0.904E-02
RMM:   8    -0.154972770056E+03    0.68230E-04   -0.10395E-04  1232   0.450E-02
  86 F= -.15497277E+03 E0= -.15497525E+03  d E =-.259738E-01  mag=     0.0000
 curvature:  -8.58 expect dE=-0.476E-01 dE for cont linesearch -0.162E-06
 trial: gam= 0.51064 g(F)=  0.554E-02 g(S)=  0.000E+00 ort = 0.211E-04 (trialstep = 0.457E+01)
 search vector abs. value=  0.117E-01
 bond charge predicted
       N       E                     dE             d eps       ncg     rms          rms(c)
DAV:   1    -0.154980264951E+03   -0.74267E-02   -0.15051E+01  2240   0.977E+00    0.545E-01
RMM:   2    -0.154998316583E+03   -0.18052E-01   -0.15832E-01  2240   0.157E+00    0.103E+00
RMM:   3    -0.154991593517E+03    0.67231E-02   -0.28448E-02  2314   0.635E-01    0.412E-01
RMM:   4    -0.154991817770E+03   -0.22425E-03   -0.72994E-03  2280   0.314E-01    0.493E-01
RMM:   5    -0.154990092679E+03    0.17251E-02   -0.42733E-03  2206   0.256E-01    0.251E-01
RMM:   6    -0.154989891475E+03    0.20120E-03   -0.23820E-03  2146   0.195E-01    0.202E-01
RMM:   7    -0.154989848887E+03    0.42588E-04   -0.11618E-03  2028   0.134E-01    0.205E-01
RMM:   8    -0.154989477057E+03    0.37183E-03   -0.49452E-04  1896   0.970E-02    0.237E-02
RMM:   9    -0.154989482887E+03   -0.58299E-05   -0.52575E-05  1234   0.290E-02
  87 F= -.15498948E+03 E0= -.15499198E+03  d E =-.167128E-01  mag=    -0.0000
 trial-energy change:   -0.016713  1 .order   -0.016681   -0.025357   -0.008005
 step:   6.6739(harm=  6.6739)  dis= 0.03179  next Energy=  -154.991297 (dE=-0.185E-01)
 bond charge predicted
       N       E                     dE             d eps       ncg     rms          rms(c)
DAV:   1    -0.154989336780E+03    0.14028E-03   -0.31921E+00  2280   0.449E+00    0.244E-01
RMM:   2    -0.154992746074E+03   -0.34093E-02   -0.30928E-02  2240   0.684E-01    0.435E-01
RMM:   3    -0.154991712065E+03    0.10340E-02   -0.55094E-03  2336   0.275E-01    0.192E-01
RMM:   4    -0.154991668061E+03    0.44004E-04   -0.12414E-03  2156   0.127E-01    0.208E-01
RMM:   5    -0.154991365220E+03    0.30284E-03   -0.80700E-04  1942   0.114E-01    0.107E-01
RMM:   6    -0.154991377356E+03   -0.12137E-04   -0.47751E-04  1916   0.893E-02
  88 F= -.15499138E+03 E0= -.15499389E+03  d E =-.186073E-01  mag=     0.0000
 curvature:  -7.02 expect dE=-0.351E-01 dE for cont linesearch -0.232E-05
 trial: gam= 0.88103 g(F)=  0.500E-02 g(S)=  0.000E+00 ort = 0.622E-04 (trialstep = 0.411E+01)
 search vector abs. value=  0.142E-01
 bond charge predicted
       N       E                     dE             d eps       ncg     rms          rms(c)
DAV:   1    -0.154994406271E+03   -0.30411E-02   -0.13443E+01  2240   0.935E+00    0.513E-01
RMM:   2    -0.155013777999E+03   -0.19372E-01   -0.16544E-01  2240   0.163E+00    0.106E+00
RMM:   3    -0.155006230616E+03    0.75474E-02   -0.29313E-02  2366   0.636E-01    0.337E-01
RMM:   4    -0.155006502135E+03   -0.27152E-03   -0.58789E-03  2286   0.276E-01    0.452E-01
RMM:   5    -0.155005067610E+03    0.14345E-02   -0.36097E-03  2182   0.232E-01    0.219E-01
RMM:   6    -0.155005156637E+03   -0.89027E-04   -0.21903E-03  2160   0.182E-01    0.234E-01
RMM:   7    -0.155004824720E+03    0.33192E-03   -0.10492E-03  2018   0.131E-01    0.154E-01
RMM:   8    -0.155004609499E+03    0.21522E-03   -0.36845E-04  1802   0.822E-02    0.334E-02
RMM:   9    -0.155004614189E+03   -0.46900E-05   -0.65915E-05  1234   0.348E-02
  89 F= -.15500461E+03 E0= -.15500687E+03  d E =-.132368E-01  mag=    -0.0000
 trial-energy change:   -0.013237  1 .order   -0.013402   -0.020777   -0.006027
 step:   5.7910(harm=  5.7910)  dis= 0.03144  next Energy=  -155.006011 (dE=-0.146E-01)
 bond charge predicted
       N       E                     dE             d eps       ncg     rms          rms(c)
DAV:   1    -0.155004167380E+03    0.44212E-03   -0.22403E+00  2272   0.381E+00    0.204E-01
RMM:   2    -0.155007060835E+03   -0.28935E-02   -0.25572E-02  2240   0.628E-01    0.398E-01
RMM:   3    -0.155006152817E+03    0.90802E-03   -0.45134E-03  2392   0.245E-01    0.149E-01
RMM:   4    -0.155006093293E+03    0.59524E-04   -0.84254E-04  2028   0.107E-01
  90 F= -.15500609E+03 E0= -.15500822E+03  d E =-.147159E-01  mag=    -0.0000
 curvature:  -8.12 expect dE=-0.245E-01 dE for cont linesearch -0.693E-05
 trial: gam= 0.55878 g(F)=  0.301E-02 g(S)=  0.000E+00 ort = 0.110E-03 (trialstep = 0.445E+01)
 search vector abs. value=  0.756E-02
 bond charge predicted
       N       E                     dE             d eps       ncg     rms          rms(c)
DAV:   1    -0.155008125976E+03   -0.19732E-02   -0.90054E+00  2240   0.772E+00    0.395E-01
RMM:   2    -0.155017081968E+03   -0.89560E-02   -0.86162E-02  2240   0.116E+00    0.670E-01
RMM:   3    -0.155015143442E+03    0.19385E-02   -0.15323E-02  2382   0.454E-01    0.362E-01
RMM:   4    -0.155014519762E+03    0.62368E-03   -0.36364E-03  2266   0.225E-01    0.279E-01
RMM:   5    -0.155014077608E+03    0.44215E-03   -0.21913E-03  2134   0.185E-01    0.214E-01
RMM:   6    -0.155013925473E+03    0.15214E-03   -0.13341E-03  2098   0.145E-01    0.155E-01
RMM:   7    -0.155013829684E+03    0.95789E-04   -0.57891E-04  1924   0.977E-02
  91 F= -.15501383E+03 E0= -.15501608E+03  d E =-.773639E-02  mag=     0.0000
 trial-energy change:   -0.007736  1 .order   -0.008115   -0.013679   -0.002550
 step:   5.4662(harm=  5.4662)  dis= 0.02226  next Energy=  -155.014500 (dE=-0.841E-02)
 bond charge predicted
       N       E                     dE             d eps       ncg     rms          rms(c)
DAV:   1    -0.155013537419E+03    0.38805E-03   -0.47155E-01  2352   0.179E+00    0.844E-02
RMM:   2    -0.155013979570E+03   -0.44215E-03   -0.45274E-03  2240   0.259E-01    0.122E-01
RMM:   3    -0.155013943234E+03    0.36336E-04   -0.71475E-04  2176   0.975E-02
  92 F= -.15501394E+03 E0= -.15501625E+03  d E =-.784994E-02  mag=     0.0000
 curvature:  -6.72 expect dE=-0.144E-01 dE for cont linesearch -0.263E-04
 trial: gam= 0.76094 g(F)=  0.214E-02 g(S)=  0.000E+00 ort =-0.172E-03 (trialstep = 0.465E+01)
 search vector abs. value=  0.626E-02
 bond charge predicted
       N       E                     dE             d eps       ncg     rms          rms(c)
DAV:   1    -0.155014631273E+03   -0.65170E-03   -0.84347E+00  2240   0.748E+00    0.359E-01
RMM:   2    -0.155022534472E+03   -0.79032E-02   -0.76028E-02  2240   0.111E+00    0.617E-01
RMM:   3    -0.155020530096E+03    0.20044E-02   -0.13103E-02  2392   0.414E-01    0.269E-01
RMM:   4    -0.155020602316E+03   -0.72220E-04   -0.29907E-03  2260   0.195E-01    0.335E-01
RMM:   5    -0.155019779296E+03    0.82302E-03   -0.19141E-03  2132   0.172E-01    0.148E-01
RMM:   6    -0.155019802012E+03   -0.22716E-04   -0.10762E-03  2088   0.130E-01    0.145E-01
RMM:   7    -0.155019666738E+03    0.13527E-03   -0.49925E-04  1900   0.934E-02    0.100E-01
RMM:   8    -0.155019578858E+03    0.87879E-04   -0.13986E-04  1246   0.537E-02
  93 F= -.15501958E+03 E0= -.15502195E+03  d E =-.563562E-02  mag=    -0.0000
 trial-energy change:   -0.005636  1 .order   -0.005715   -0.009355   -0.002074
 step:   5.9753(harm=  5.9753)  dis= 0.02158  next Energy=  -155.019953 (dE=-0.601E-02)
 bond charge predicted
       N       E                     dE             d eps       ncg     rms          rms(c)
DAV:   1    -0.155019391722E+03    0.27502E-03   -0.68261E-01  2272   0.213E+00    0.100E-01
RMM:   2    -0.155020094773E+03   -0.70305E-03   -0.63114E-03  2240   0.324E-01    0.193E-01
RMM:   3    -0.155019873095E+03    0.22168E-03   -0.10710E-03  2242   0.119E-01    0.650E-02
RMM:   4    -0.155019867939E+03    0.51568E-05   -0.15711E-04  1316   0.508E-02
  94 F= -.15501987E+03 E0= -.15502224E+03  d E =-.592470E-02  mag=     0.0000
 curvature:  -9.30 expect dE=-0.128E-01 dE for cont linesearch -0.629E-05
 trial: gam= 0.55375 g(F)=  0.137E-02 g(S)=  0.000E+00 ort =-0.651E-04 (trialstep = 0.492E+01)
 search vector abs. value=  0.322E-02
 bond charge predicted
       N       E                     dE             d eps       ncg     rms          rms(c)
DAV:   1    -0.155020768559E+03   -0.89546E-03   -0.41622E+00  2240   0.524E+00    0.283E-01
RMM:   2    -0.155026586389E+03   -0.58178E-02   -0.50841E-02  2242   0.898E-01    0.573E-01
RMM:   3    -0.155024637859E+03    0.19485E-02   -0.91175E-03  2402   0.348E-01    0.199E-01
RMM:   4    -0.155024627480E+03    0.10379E-04   -0.17695E-03  2248   0.150E-01    0.239E-01
RMM:   5    -0.155024212633E+03    0.41485E-03   -0.10415E-03  1998   0.127E-01    0.118E-01
RMM:   6    -0.155024254250E+03   -0.41617E-04   -0.69938E-04  1996   0.105E-01
  95 F= -.15502425E+03 E0= -.15502668E+03  d E =-.438631E-02  mag=    -0.0000
 trial-energy change:   -0.004386  1 .order   -0.004410   -0.006569   -0.002250
 step:   7.4762(harm=  7.4762)  dis= 0.01531  next Energy=  -155.024863 (dE=-0.500E-02)
 bond charge predicted
       N       E                     dE             d eps       ncg     rms          rms(c)
DAV:   1    -0.155023509041E+03    0.70359E-03   -0.11269E+00  2264   0.274E+00    0.161E-01
RMM:   2    -0.155025647309E+03   -0.21383E-02   -0.15014E-02  2242   0.488E-01    0.387E-01
RMM:   3    -0.155024524725E+03    0.11226E-02   -0.30844E-03  2284   0.216E-01    0.109E-01
RMM:   4    -0.155024592262E+03   -0.67537E-04   -0.67785E-04  1960   0.993E-02
  96 F= -.15502459E+03 E0= -.15502695E+03  d E =-.472432E-02  mag=    -0.0000
 curvature:  -9.01 expect dE=-0.120E-01 dE for cont linesearch -0.593E-04
 trial: gam= 1.07188 g(F)=  0.134E-02 g(S)=  0.000E+00 ort =-0.146E-03 (trialstep = 0.370E+01)
 search vector abs. value=  0.472E-02
 bond charge predicted
       N       E                     dE             d eps       ncg     rms          rms(c)
DAV:   1    -0.155025347332E+03   -0.82261E-03   -0.38465E+00  2240   0.502E+00    0.270E-01
RMM:   2    -0.155029597429E+03   -0.42501E-02   -0.37540E-02  2240   0.792E-01    0.535E-01
RMM:   3    -0.155027941641E+03    0.16558E-02   -0.67327E-03  2420   0.292E-01    0.182E-01
RMM:   4    -0.155027957755E+03   -0.16114E-04   -0.14852E-03  2214   0.136E-01    0.237E-01
RMM:   5    -0.155027550019E+03    0.40774E-03   -0.10266E-03  1976   0.124E-01    0.111E-01
RMM:   6    -0.155027541125E+03    0.88944E-05   -0.43687E-04  1858   0.832E-02
  97 F= -.15502754E+03 E0= -.15502974E+03  d E =-.294886E-02  mag=    -0.0000
 trial-energy change:   -0.002949  1 .order   -0.003176   -0.004369   -0.001983
 step:   6.7724(harm=  6.7724)  dis= 0.01474  next Energy=  -155.028592 (dE=-0.400E-02)
 bond charge predicted
       N       E                     dE             d eps       ncg     rms          rms(c)
DAV:   1    -0.155026454771E+03    0.10952E-02   -0.26499E+00  2256   0.416E+00    0.216E-01
RMM:   2    -0.155029690816E+03   -0.32360E-02   -0.27247E-02  2240   0.672E-01    0.456E-01
RMM:   3    -0.155028338184E+03    0.13526E-02   -0.50293E-03  2378   0.259E-01    0.140E-01
RMM:   4    -0.155028373394E+03   -0.35211E-04   -0.10497E-03  2076   0.118E-01    0.183E-01
RMM:   5    -0.155028154448E+03    0.21895E-03   -0.64297E-04  1914   0.104E-01    0.107E-01
RMM:   6    -0.155028110624E+03    0.43824E-04   -0.41138E-04  1806   0.832E-02
  98 F= -.15502811E+03 E0= -.15503014E+03  d E =-.351836E-02  mag=    -0.0000
 curvature: -13.55 expect dE=-0.121E-01 dE for cont linesearch -0.246E-05
 trial: gam= 0.50350 g(F)=  0.890E-03 g(S)=  0.000E+00 ort =-0.293E-04 (trialstep = 0.431E+01)
 search vector abs. value=  0.206E-02
 bond charge predicted
       N       E                     dE             d eps       ncg     rms          rms(c)
DAV:   1    -0.155028941174E+03   -0.78673E-03   -0.22085E+00  2240   0.379E+00    0.200E-01
RMM:   2    -0.155031792701E+03   -0.28515E-02   -0.24533E-02  2240   0.623E-01    0.410E-01
RMM:   3    -0.155030748618E+03    0.10441E-02   -0.43332E-03  2376   0.242E-01    0.136E-01
RMM:   4    -0.155030838589E+03   -0.89971E-04   -0.92093E-04  2044   0.109E-01
  99 F= -.15503084E+03 E0= -.15503276E+03  d E =-.272797E-02  mag=    -0.0000
 trial-energy change:   -0.002728  1 .order   -0.002575   -0.003777   -0.001372
 step:   6.7756(harm=  6.7756)  dis= 0.00967  next Energy=  -155.031077 (dE=-0.297E-02)
 bond charge predicted
       N       E                     dE             d eps       ncg     rms          rms(c)
DAV:   1    -0.155030401850E+03    0.34677E-03   -0.71985E-01  2304   0.221E+00    0.145E-01
RMM:   2    -0.155031461400E+03   -0.10596E-02   -0.79036E-03  2240   0.354E-01    0.293E-01
RMM:   3    -0.155030917712E+03    0.54369E-03   -0.15774E-03  2260   0.149E-01    0.104E-01
RMM:   4    -0.155030879785E+03    0.37927E-04   -0.39686E-04  1792   0.762E-02
 100 F= -.15503088E+03 E0= -.15503271E+03  d E =-.276916E-02  mag=     0.0000
 curvature:  -7.97 expect dE=-0.576E-02 dE for cont linesearch -0.348E-06
 trial: gam= 0.80986 g(F)=  0.723E-03 g(S)=  0.000E+00 ort =-0.949E-05 (trialstep = 0.481E+01)
 search vector abs. value=  0.206E-02
 bond charge predicted
       N       E                     dE             d eps       ncg     rms          rms(c)
DAV:   1    -0.155030669507E+03    0.24820E-03   -0.24379E+00  2240   0.401E+00    0.215E-01
RMM:   2    -0.155033844067E+03   -0.31746E-02   -0.32056E-02  2240   0.708E-01    0.368E-01
RMM:   3    -0.155033304134E+03    0.53993E-03   -0.49929E-03  2460   0.242E-01    0.161E-01
RMM:   4    -0.155033133738E+03    0.17040E-03   -0.82325E-04  2060   0.102E-01    0.151E-01
RMM:   5    -0.155033020223E+03    0.11352E-03   -0.66184E-04  1928   0.102E-01    0.116E-01
RMM:   6    -0.155032974170E+03    0.46053E-04   -0.40712E-04  1868   0.826E-02
 101 F= -.15503297E+03 E0= -.15503459E+03  d E =-.209439E-02  mag=     0.0000
 trial-energy change:   -0.002094  1 .order   -0.002322   -0.003439   -0.001205
 step:   7.3977(harm=  7.3977)  dis= 0.00976  next Energy=  -155.033527 (dE=-0.265E-02)
 reached required accuracy - stopping structural energy minimisation
